 vasp.5.4.4.18Apr17-6-g9f103f2a35 (build May  1 2020 15:48:39) complex           
 executed on             LinuxGNU date 2020.06.20  18:43:15
 running on   16 total cores
 distrk:  each k-point on   16 cores,    1 groups
 distr:  one band on NCORES_PER_BAND=   1 cores,   16 groups


--------------------------------------------------------------------------------------------------------


 INCAR:
 POTCAR:   PAW_PBE Cr 06Sep2000                   
 POTCAR:   PAW_PBE Si 05Jan2001                   
 POTCAR:    PAW_PBE P 17Jan2003                   
 POTCAR:    PAW_PBE S 17Jan2003                   

 ----------------------------------------------------------------------------- 
|                                                                             |
|           W    W    AA    RRRRR   N    N  II  N    N   GGGG   !!!           |
|           W    W   A  A   R    R  NN   N  II  NN   N  G    G  !!!           |
|           W    W  A    A  R    R  N N  N  II  N N  N  G       !!!           |
|           W WW W  AAAAAA  RRRRR   N  N N  II  N  N N  G  GGG   !            |
|           WW  WW  A    A  R   R   N   NN  II  N   NN  G    G                |
|           W    W  A    A  R    R  N    N  II  N    N   GGGG   !!!           |
|                                                                             |
|      For optimal performance we recommend to set                            |
|        NCORE= 4 - approx SQRT( number of cores)                             |
|      NCORE specifies how many cores store one orbital (NPAR=cpu/NCORE).     |
|      This setting can  greatly improve the performance of VASP for DFT.     |
|      The default,   NCORE=1            might be grossly inefficient         |
|      on modern multi-core architectures or massively parallel machines.     |
|      Do your own testing !!!!                                               |
|      Unfortunately you need to use the default for GW and RPA calculations. |
|      (for HF NCORE is supported but not extensively tested yet)             |
|                                                                             |
 ----------------------------------------------------------------------------- 


 ----------------------------------------------------------------------------- 
|                                                                             |
|  ADVICE TO THIS USER RUNNING 'VASP/VAMP'   (HEAR YOUR MASTER'S VOICE ...):  |
|                                                                             |
|      You have switched on vdW-DFT.                                          |
|      This routine was written and supplied by Jiri Klimes.                  |
|      We recommed that you carefully read and cite the following             |
|      publication                                                            |
|      J. Klimes, D.R. Bowler, A. Michelides                                  |
|        J. Phys.: Cond Matt. 22 022201 (2010)                                |
|      J. Klimes, D.R. Bowler, A. Michelides                                  |
|        Phys. Rev. B. 83, 195131 (2011)                                      |
|      and references therein.                                                |
|                                                                             |
 ----------------------------------------------------------------------------- 

 POTCAR:   PAW_PBE Cr 06Sep2000                   
   VRHFIN =Cr : d5 s1                                                           
   LEXCH  = PE                                                                  
   EATOM  =   276.9744 eV,   20.3570 Ry                                         
                                                                                
   TITEL  = PAW_PBE Cr 06Sep2000                                                
   LULTRA =        F    use ultrasoft PP ?                                      
   IUNSCR =        1    unscreen: 0-lin 1-nonlin 2-no                           
   RPACOR =    2.080    partial core radius                                     
   POMASS =   51.996; ZVAL   =    6.000    mass and valenz                      
   RCORE  =    2.500    outmost cutoff radius                                   
   RWIGS  =    2.500; RWIGS  =    1.323    wigner-seitz radius (au A)           
   ENMAX  =  227.082; ENMIN  =  170.311 eV                                      
   RCLOC  =    1.721    cutoff for local pot                                    
   LCOR   =        T    correct aug charges                                     
   LPAW   =        T    paw PP                                                  
   EAUG   =  402.108                                                            
   DEXC   =    -.035                                                            
   RMAX   =    3.060    core radius for proj-oper                               
   RAUG   =    1.300    factor for augmentation sphere                          
   RDEP   =    2.609    radius for radial grids                                 
   QCUT   =   -4.085; QGAM   =    8.171    optimization parameters              
                                                                                
   Description                                                                  
     l     E      TYP  RCUT    TYP  RCUT                                        
     2   .000     23  2.500                                                     
     2   .000     23  2.500                                                     
     0   .000     23  2.500                                                     
     0   .000     23  2.500                                                     
     1  -.400     23  2.500                                                     
     1  2.000     23  2.500                                                     
     3   .000      7   .000                                                     
  local pseudopotential read in
  partial core-charges read in
  atomic valenz-charges read in
  non local Contribution for L=           2  read in
    real space projection operators read in
  non local Contribution for L=           2  read in
    real space projection operators read in
  non local Contribution for L=           0  read in
    real space projection operators read in
  non local Contribution for L=           0  read in
    real space projection operators read in
  non local Contribution for L=           1  read in
    real space projection operators read in
  non local Contribution for L=           1  read in
    real space projection operators read in
    PAW grid and wavefunctions read in

   number of l-projection  operators is LMAX  =           6
   number of lm-projection operators is LMMAX =          18

 POTCAR:   PAW_PBE Si 05Jan2001                   
   VRHFIN =Si: s2p2                                                             
   LEXCH  = PE                                                                  
   EATOM  =   103.0669 eV,    7.5752 Ry                                         
                                                                                
   TITEL  = PAW_PBE Si 05Jan2001                                                
   LULTRA =        F    use ultrasoft PP ?                                      
   IUNSCR =        1    unscreen: 0-lin 1-nonlin 2-no                           
   RPACOR =    1.500    partial core radius                                     
   POMASS =   28.085; ZVAL   =    4.000    mass and valenz                      
   RCORE  =    1.900    outmost cutoff radius                                   
   RWIGS  =    2.480; RWIGS  =    1.312    wigner-seitz radius (au A)           
   ENMAX  =  245.345; ENMIN  =  184.009 eV                                      
   ICORE  =        2    local potential                                         
   LCOR   =        T    correct aug charges                                     
   LPAW   =        T    paw PP                                                  
   EAUG   =  322.069                                                            
   DEXC   =    -.007                                                            
   RMAX   =    2.944    core radius for proj-oper                               
   RAUG   =    1.300    factor for augmentation sphere                          
   RDEP   =    1.993    radius for radial grids                                 
   QCUT   =   -4.246; QGAM   =    8.493    optimization parameters              
                                                                                
   Description                                                                  
     l     E      TYP  RCUT    TYP  RCUT                                        
     0   .000     23  1.900                                                     
     0   .000     23  1.900                                                     
     1   .000     23  1.900                                                     
     1   .000     23  1.900                                                     
     2   .000      7  1.900                                                     
  local pseudopotential read in
  partial core-charges read in
  atomic valenz-charges read in
  non local Contribution for L=           0  read in
    real space projection operators read in
  non local Contribution for L=           0  read in
    real space projection operators read in
  non local Contribution for L=           1  read in
    real space projection operators read in
  non local Contribution for L=           1  read in
    real space projection operators read in
    PAW grid and wavefunctions read in

   number of l-projection  operators is LMAX  =           4
   number of lm-projection operators is LMMAX =           8

 POTCAR:    PAW_PBE P 17Jan2003                   
   VRHFIN =P : s2p3                                                             
   LEXCH  = PE                                                                  
   EATOM  =   176.0430 eV,   12.9388 Ry                                         
                                                                                
   TITEL  = PAW_PBE P 17Jan2003                                                 
   LULTRA =        F    use ultrasoft PP ?                                      
   IUNSCR =        1    unscreen: 0-lin 1-nonlin 2-no                           
   RPACOR =    1.500    partial core radius                                     
   POMASS =   30.974; ZVAL   =    5.000    mass and valenz                      
   RCORE  =    1.900    outmost cutoff radius                                   
   RWIGS  =    2.330; RWIGS  =    1.233    wigner-seitz radius (au A)           
   ENMAX  =  270.000; ENMIN  =  191.280 eV                                      
   ICORE  =        2    local potential                                         
   LCOR   =        T    correct aug charges                                     
   LPAW   =        T    paw PP                                                  
   EAUG   =  342.924                                                            
   DEXC   =    -.002                                                            
   RMAX   =    2.887    core radius for proj-oper                               
   RAUG   =    1.300    factor for augmentation sphere                          
   RDEP   =    1.931    radius for radial grids                                 
   QCUT   =   -4.330; QGAM   =    8.659    optimization parameters              
                                                                                
   Description                                                                  
     l     E      TYP  RCUT    TYP  RCUT                                        
     0   .000     23  1.900                                                     
     0   .000     23  1.900                                                     
     1   .000     23  1.900                                                     
     1   .000     23  1.900                                                     
     2   .000     23  1.900                                                     
  local pseudopotential read in
  partial core-charges read in
  atomic valenz-charges read in
  non local Contribution for L=           0  read in
    real space projection operators read in
  non local Contribution for L=           0  read in
    real space projection operators read in
  non local Contribution for L=           1  read in
    real space projection operators read in
  non local Contribution for L=           1  read in
    real space projection operators read in
    PAW grid and wavefunctions read in

   number of l-projection  operators is LMAX  =           4
   number of lm-projection operators is LMMAX =           8

 POTCAR:    PAW_PBE S 17Jan2003                   
   VRHFIN =S : s2p4                                                             
   LEXCH  = PE                                                                  
   EATOM  =   276.8230 eV,   20.3459 Ry                                         
                                                                                
   TITEL  = PAW_PBE S 17Jan2003                                                 
   LULTRA =        F    use ultrasoft PP ?                                      
   IUNSCR =        1    unscreen: 0-lin 1-nonlin 2-no                           
   RPACOR =    1.500    partial core radius                                     
   POMASS =   32.066; ZVAL   =    6.000    mass and valenz                      
   RCORE  =    1.900    outmost cutoff radius                                   
   RWIGS  =    2.200; RWIGS  =    1.164    wigner-seitz radius (au A)           
   ENMAX  =  280.000; ENMIN  =  194.016 eV                                      
   ICORE  =        2    local potential                                         
   LCOR   =        T    correct aug charges                                     
   LPAW   =        T    paw PP                                                  
   EAUG   =  335.092                                                            
   DEXC   =     .000                                                            
   RMAX   =    2.867    core radius for proj-oper                               
   RAUG   =    1.300    factor for augmentation sphere                          
   RDEP   =    1.954    radius for radial grids                                 
   QCUT   =   -4.360; QGAM   =    8.721    optimization parameters              
                                                                                
   Description                                                                  
     l     E      TYP  RCUT    TYP  RCUT                                        
     0   .000     23  1.900                                                     
     0   .000     23  1.900                                                     
     1   .000     23  1.900                                                     
     1   .000     23  1.900                                                     
     2   .000     23  1.900                                                     
  local pseudopotential read in
  partial core-charges read in
  atomic valenz-charges read in
  non local Contribution for L=           0  read in
    real space projection operators read in
  non local Contribution for L=           0  read in
    real space projection operators read in
  non local Contribution for L=           1  read in
    real space projection operators read in
  non local Contribution for L=           1  read in
    real space projection operators read in
    PAW grid and wavefunctions read in

   number of l-projection  operators is LMAX  =           4
   number of lm-projection operators is LMMAX =           8

 Optimization of the real space projectors (new method)

 maximal supplied QI-value         = 15.12
 optimisation between [QCUT,QGAM] = [ 11.64, 23.28] = [ 37.95,151.78] Ry 
 Optimized for a Real-space Cutoff    1.49 Angstroem

   l    n(q)    QCUT    max X(q) W(low)/X(q) W(high)/X(q)  e(spline) 
   2      9    11.641     4.777    0.25E-04    0.21E-05    0.63E-07
   2      9    11.641    31.132    0.13E-03    0.22E-03    0.64E-06
   0     10    11.641    20.416    0.11E-04    0.74E-05    0.19E-07
   0     10    11.641    45.408    0.10E-03    0.85E-04    0.30E-06
   1     10    11.641     7.848    0.22E-04    0.23E-04    0.56E-07
   1     10    11.641     9.895    0.85E-04    0.54E-04    0.16E-06
 Optimization of the real space projectors (new method)

 maximal supplied QI-value         = 19.84
 optimisation between [QCUT,QGAM] = [ 11.51, 23.22] = [ 37.09,150.92] Ry 
 Optimized for a Real-space Cutoff    1.21 Angstroem

   l    n(q)    QCUT    max X(q) W(low)/X(q) W(high)/X(q)  e(spline) 
   0      8    11.508     8.708    0.18E-04    0.44E-05    0.47E-08
   0      8    11.508   106.241    0.70E-04    0.15E-03    0.51E-07
   1      8    11.508     5.901    0.63E-05    0.23E-04    0.21E-07
   1      8    11.508    73.241    0.15E-03    0.36E-04    0.79E-07
 Optimization of the real space projectors (new method)

 maximal supplied QI-value         = 19.84
 optimisation between [QCUT,QGAM] = [ 11.51, 23.22] = [ 37.09,150.92] Ry 
 Optimized for a Real-space Cutoff    1.21 Angstroem

   l    n(q)    QCUT    max X(q) W(low)/X(q) W(high)/X(q)  e(spline) 
   0      8    11.508     6.651    0.19E-04    0.31E-05    0.49E-08
   0      8    11.508    90.285    0.95E-04    0.17E-03    0.51E-07
   1      8    11.508     4.328    0.14E-04    0.32E-04    0.22E-07
   1      8    11.508    54.583    0.16E-03    0.71E-04    0.89E-07
 Optimization of the real space projectors (new method)

 maximal supplied QI-value         = 19.84
 optimisation between [QCUT,QGAM] = [ 11.51, 23.22] = [ 37.09,150.92] Ry 
 Optimized for a Real-space Cutoff    1.21 Angstroem

   l    n(q)    QCUT    max X(q) W(low)/X(q) W(high)/X(q)  e(spline) 
   0      8    11.508     5.487    0.18E-04    0.22E-05    0.47E-08
   0      8    11.508    85.627    0.96E-04    0.18E-03    0.54E-07
   1      8    11.508     3.530    0.17E-04    0.28E-04    0.21E-07
   1      8    11.508    42.714    0.18E-03    0.63E-04    0.92E-07

 ----------------------------------------------------------------------------- 
|                                                                             |
|  ADVICE TO THIS USER RUNNING 'VASP/VAMP'   (HEAR YOUR MASTER'S VOICE ...):  |
|                                                                             |
|      You enforced a specific xc-type in the INCAR file,                     |
|      a different type was found on the POTCAR file                          |
|          I HOPE YOU KNOW, WHAT YOU ARE  DOING                               |
|                                                                             |
 ----------------------------------------------------------------------------- 

 PAW_PBE Cr 06Sep2000                   :
 energy of atom  1       EATOM= -276.9744
 kinetic energy error for atom=    0.0010 (will be added to EATOM!!)
 PAW_PBE Si 05Jan2001                   :
 energy of atom  2       EATOM= -103.0669
 kinetic energy error for atom=    0.0005 (will be added to EATOM!!)
  PAW_PBE P 17Jan2003                   :
 energy of atom  3       EATOM= -176.0430
 kinetic energy error for atom=    0.0011 (will be added to EATOM!!)
  PAW_PBE S 17Jan2003                   :
 energy of atom  4       EATOM= -276.8230
 kinetic energy error for atom=    0.0016 (will be added to EATOM!!)


 POSCAR: Cr2 Si P S6                             
  positions in direct lattice
  velocities in cartesian coordinates
  No initial velocities read in
 exchange correlation table for  LEXCH =       42
   RHO(1)=    0.500       N(1)  =     2000
   RHO(2)=  100.500       N(2)  =     4000



--------------------------------------------------------------------------------------------------------


 ion  position               nearest neighbor table
   1  0.333  0.333  0.500-   6 2.78   5 2.78   7 2.78   8 2.78  10 2.78   9 2.78
   2  0.667  0.667  0.500-   9 2.78   8 2.78  10 2.78   5 2.78   7 2.78   6 2.78
   3  0.000  0.000  0.448-   4 2.43   8 2.63  10 2.63   9 2.63
   4  0.000  0.000  0.552-   3 2.43   5 2.63   7 2.63   6 2.63
   5  0.626  0.000  0.574-   4 2.63   1 2.78   2 2.78
   6  0.000  0.373  0.574-   4 2.63   1 2.78   2 2.78
   7  0.373  0.626  0.574-   4 2.63   1 2.78   2 2.78
   8  0.374  1.000  0.426-   3 2.63   2 2.78   1 2.78
   9  1.000  0.627  0.426-   3 2.63   2 2.78   1 2.78
  10  0.627  0.374  0.426-   3 2.63   2 2.78   1 2.78

  LATTYP: Found a hexagonal cell.
 ALAT       =     6.9077769333
 C/A-ratio  =     3.3939410937
  
  Lattice vectors:
  
 A1 = (   3.4538890000,  -5.9823100000,   0.0000000000)
 A2 = (  -6.9077770000,   0.0000000000,   0.0000000000)
 A3 = (   0.0000000000,   0.0000000000, -23.4445880000)


Analysis of symmetry for initial positions (statically):
=====================================================================
 Subroutine PRICEL returns:
 Original cell was already a primitive cell.
 

 Routine SETGRP: Setting up the symmetry group for a 
 hexagonal supercell.


 Subroutine GETGRP returns: Found  3 space group operations
 (whereof  3 operations were pure point group operations)
 out of a pool of 24 trial point group operations.


The static configuration has the point symmetry C_3 .


Analysis of symmetry for dynamics (positions and initial velocities):
=====================================================================
 Subroutine PRICEL returns:
 Original cell was already a primitive cell.
 

 Routine SETGRP: Setting up the symmetry group for a 
 hexagonal supercell.


 Subroutine GETGRP returns: Found  3 space group operations
 (whereof  3 operations were pure point group operations)
 out of a pool of 24 trial point group operations.


The dynamic configuration has the point symmetry C_3 .


Analysis of constrained symmetry for selective dynamics:
=====================================================================
 Subroutine PRICEL returns:
 Original cell was already a primitive cell.
 

 Routine SETGRP: Setting up the symmetry group for a 
 hexagonal supercell.


 Subroutine GETGRP returns: Found  3 space group operations
 (whereof  3 operations were pure point group operations)
 out of a pool of 24 trial point group operations.


The constrained configuration has the point symmetry C_3 .


Analysis of structural, dynamic, and magnetic symmetry:
=====================================================================
 Subroutine PRICEL returns:
 Original cell was already a primitive cell.
 

 Routine SETGRP: Setting up the symmetry group for a 
 hexagonal supercell.


 Subroutine GETGRP returns: Found  3 space group operations
 (whereof  3 operations were pure point group operations)
 out of a pool of 24 trial point group operations.


The magnetic configuration has the point symmetry C_3 .


 Subroutine INISYM returns: Found  3 space group operations
 (whereof  3 operations are pure point group operations),
 and found     1 'primitive' translations



 KPOINTS: Kpoints from vasprun.xml                

Automatic generation of k-mesh.
Space group operators:
 irot       det(A)        alpha          n_x          n_y          n_z        tau_x        tau_y        tau_z
    1     1.000000     0.000000     1.000000     0.000000     0.000000     0.000000     0.000000     0.000000
    2     1.000000   120.000000     0.000000     0.000000     1.000000     0.000000     0.000000     0.000000
    3     1.000000   120.000000     0.000000     0.000000    -1.000000     0.000000     0.000000     0.000000
 
 Subroutine IBZKPT returns following result:
 ===========================================
 
 Found      5 irreducible k-points:
 
 Following reciprocal coordinates:
            Coordinates               Weight
  0.000000  0.000000  0.000000      1.000000
  0.200000  0.000000  0.000000      6.000000
  0.400000  0.000000  0.000000      6.000000
  0.400000  0.200000  0.000000      6.000000
 -0.400000  0.200000  0.000000      6.000000
 
 Following cartesian coordinates:
            Coordinates               Weight
  0.000000  0.000000  0.000000      1.000000
  0.028953 -0.016716  0.000000      6.000000
  0.057906 -0.033432  0.000000      6.000000
  0.057906  0.000000  0.000000      6.000000
 -0.057906  0.066864  0.000000      6.000000
 
 TETIRR: Found     15 inequivalent tetrahedra from      150


--------------------------------------------------------------------------------------------------------




 Dimension of arrays:
   k-points           NKPTS =      5   k-points in BZ     NKDIM =      5   number of bands    NBANDS=     48
   number of dos      NEDOS =    301   number of ions     NIONS =     10
   non local maximal  LDIM  =      6   non local SUM 2l+1 LMDIM =     18
   total plane-waves  NPLWV = 524880
   max r-space proj   IRMAX =   7543   max aug-charges    IRDMAX=  27873
   dimension x,y,z NGX =    54 NGY =   54 NGZ =  180
   dimension x,y,z NGXF=   108 NGYF=  108 NGZF=  360
   support grid    NGXF=   108 NGYF=  108 NGZF=  360
   ions per type =               2   1   1   6
   NGX,Y,Z   is equivalent  to a cutoff of  13.00, 13.00, 12.76 a.u.
   NGXF,Y,Z  is equivalent  to a cutoff of  25.99, 25.99, 25.53 a.u.

 SYSTEM =  unknown system                          
 POSCAR =  Cr2 Si P S6                             

 Startparameter for this run:
   NWRITE =      2    write-flag & timer
   PREC   = accura    normal or accurate (medium, high low for compatibility)
   ISTART =      0    job   : 0-new  1-cont  2-samecut
   ICHARG =      2    charge: 1-file 2-atom 10-const
   ISPIN  =      2    spin polarized calculation?
   LNONCOLLINEAR =      F non collinear calculations
   LSORBIT =      F    spin-orbit coupling
   INIWAV =      1    electr: 0-lowe 1-rand  2-diag
   LASPH  =      F    aspherical Exc in radial PAW
   METAGGA=      F    non-selfconsistent MetaGGA calc.

 Electronic Relaxation 1
   ENCUT  =  520.0 eV  38.22 Ry    6.18 a.u.  12.84 12.84 43.59*2*pi/ulx,y,z
   ENINI  =  520.0     initial cutoff
   ENAUG  =  402.1 eV  augmentation charge cutoff
   NELM   =    400;   NELMIN=  2; NELMDL=  0     # of ELM steps 
   EDIFF  = 0.1E-03   stopping-criterion for ELM
   LREAL  =      T    real-space projection
   NLSPLINE    = F    spline interpolate recip. space projectors
   LCOMPAT=      F    compatible to vasp.4.4
   GGA_COMPAT  = T    GGA compatible to vasp.4.4-vasp.4.6
   LMAXPAW     = -100 max onsite density
   LMAXMIX     =    2 max onsite mixed and CHGCAR
   VOSKOWN=      0    Vosko Wilk Nusair interpolation
   ROPT   =   -0.00025  -0.00025  -0.00025  -0.00025
 Ionic relaxation
   EDIFFG = 0.1E-02   stopping-criterion for IOM
   NSW    =     99    number of steps for IOM
   NBLOCK =      1;   KBLOCK =     99    inner block; outer block 
   IBRION =      2    ionic relax: 0-MD 1-quasi-New 2-CG
   NFREE  =      1    steps in history (QN), initial steepest desc. (CG)
   ISIF   =      3    stress and relaxation
   IWAVPR =     11    prediction:  0-non 1-charg 2-wave 3-comb
   ISYM   =      2    0-nonsym 1-usesym 2-fastsym
   LCORR  =      T    Harris-Foulkes like correction to forces

   POTIM  = 0.5000    time-step for ionic-motion
   TEIN   =    0.0    initial temperature
   TEBEG  =    0.0;   TEEND  =   0.0 temperature during run
   SMASS  =  -3.00    Nose mass-parameter (am)
   estimated Nose-frequenzy (Omega)   =  0.10E-29 period in steps =****** mass=  -0.109E-26a.u.
   SCALEE = 1.0000    scale energy and forces
   NPACO  =    256;   APACO  = 16.0  distance and # of slots for P.C.
   PSTRESS=    0.0 pullay stress

  Mass of Ions in am
   POMASS =  52.00 28.09 30.97 32.07
  Ionic Valenz
   ZVAL   =   6.00  4.00  5.00  6.00
  Atomic Wigner-Seitz radii
   RWIGS  =  -1.00 -1.00 -1.00 -1.00
  virtual crystal weights 
   VCA    =   1.00  1.00  1.00  1.00
   NELECT =      57.0000    total number of electrons
   NUPDOWN=      -1.0000    fix difference up-down

 DOS related values:
   EMIN   =  10.00;   EMAX   =-10.00  energy-range for DOS
   EFERMI =   0.00
   ISMEAR =    -5;   SIGMA  =   0.05  broadening in eV -4-tet -1-fermi 0-gaus

 Electronic relaxation 2 (details)
   IALGO  =     38    algorithm
   LDIAG  =      T    sub-space diagonalisation (order eigenvalues)
   LSUBROT=      F    optimize rotation matrix (better conditioning)
   TURBO    =      0    0=normal 1=particle mesh
   IRESTART =      0    0=no restart 2=restart with 2 vectors
   NREBOOT  =      0    no. of reboots
   NMIN     =      0    reboot dimension
   EREF     =   0.00    reference energy to select bands
   IMIX   =      4    mixing-type and parameters
     AMIX     =   0.40;   BMIX     =  1.00
     AMIX_MAG =   1.60;   BMIX_MAG =  1.00
     AMIN     =   0.01
     WC   =   100.;   INIMIX=   1;  MIXPRE=   1;  MAXMIX= -45

 Intra band minimization:
   WEIMIN = 0.0010     energy-eigenvalue tresh-hold
   EBREAK =  0.52E-06  absolut break condition
   DEPER  =   0.30     relativ break condition  

   TIME   =   0.40     timestep for ELM

  volume/ion in A,a.u.               =      96.88       653.80
  Fermi-wavevector in a.u.,A,eV,Ry     =   0.636722  1.203230  5.516004  0.405415
  Thomas-Fermi vector in A             =   1.701488

 Write flags
   LWAVE        =      F    write WAVECAR
   LDOWNSAMPLE  =      F    k-point downsampling of WAVECAR
   LCHARG       =      T    write CHGCAR
   LVTOT        =      F    write LOCPOT, total local potential
   LVHAR        =      F    write LOCPOT, Hartree potential only
   LELF         =      F    write electronic localiz. function (ELF)
   LORBIT       =     11    0 simple, 1 ext, 2 COOP (PROOUT), +10 PAW based schemes


 Dipole corrections
   LMONO  =      F    monopole corrections only (constant potential shift)
   LDIPOL =      F    correct potential (dipole corrections)
   IDIPOL =      0    1-x, 2-y, 3-z, 4-all directions 
   EPSILON=  1.0000000 bulk dielectric constant

 Exchange correlation treatment:
   GGA     =    BO    GGA type
   LEXCH   =    42    internal setting for exchange type
   VOSKOWN=      0    Vosko Wilk Nusair interpolation
   LHFCALC =     F    Hartree Fock is set to
   LHFONE  =     F    Hartree Fock one center treatment
   AEXX    =    0.0000 exact exchange contribution

 vdW DFT:
   LUSE_VDW   =     T    switch on vdW DFT
   Zab_VDW    =-.8491    correlation parameter
   PARAM1     =0.1833
   PARAM2     =0.2200
   PARAM3     =0.0000
   -- rVV10 --
   BPARAM     = 6.3000
   CPARAM     = 0.0093

 Linear response parameters
   LEPSILON=     F    determine dielectric tensor
   LRPA    =     F    only Hartree local field effects (RPA)
   LNABLA  =     F    use nabla operator in PAW spheres
   LVEL    =     F    velocity operator in full k-point grid
   LINTERFAST=   F  fast interpolation
   KINTER  =     0    interpolate to denser k-point grid
   CSHIFT  =0.1000    complex shift for real part using Kramers Kronig
   OMEGAMAX=  -1.0    maximum frequency
   DEG_THRESHOLD= 0.2000000E-02 threshold for treating states as degnerate
   RTIME   =   -0.100 relaxation time in fs
  (WPLASMAI=    0.000 imaginary part of plasma frequency in eV, 0.658/RTIME)
   DFIELD  = 0.0000000 0.0000000 0.0000000 field for delta impulse in time

 Orbital magnetization related:
   ORBITALMAG=     F  switch on orbital magnetization
   LCHIMAG   =     F  perturbation theory with respect to B field
   DQ        =  0.001000  dq finite difference perturbation B field
   LLRAUG    =     F  two centre corrections for induced B field



--------------------------------------------------------------------------------------------------------


 conjugate gradient relaxation of ions
   using selective dynamics as specified on POSCAR
 charge density and potential will be updated during run
 spin polarized calculation
 Variant of blocked Davidson
 Davidson routine will perform the subspace rotation
 perform sub-space diagonalisation
    after iterative eigenvector-optimisation
 modified Broyden-mixing scheme, WC =      100.0
 initial mixing is a Kerker type mixing with AMIX =  0.4000 and BMIX =      1.0000
 Hartree-type preconditioning will be used
 using additional bands           19
 real space projection scheme for non local part
 use partial core corrections
 calculate Harris-corrections to forces   (improved forces if not selfconsistent)
 use gradient corrections 
 use of overlap-Matrix (Vanderbilt PP)
 Fermi weights with tetrahedron method with Bloechl corrections


--------------------------------------------------------------------------------------------------------


  energy-cutoff  :      520.00
  volume of cell :      968.84
      direct lattice vectors                 reciprocal lattice vectors
     6.907777000 -0.000000000  0.000000000     0.144764372 -0.083579742  0.000000000
     3.453888000  5.982310000  0.000000000     0.000000000  0.167159509 -0.000000000
     0.000000000  0.000000000 23.444588000    -0.000000000  0.000000000  0.042653767

  length of vectors
     6.907777000  6.907776433 23.444588000     0.167159495  0.167159509  0.042653767



 k-points in units of 2pi/SCALE and weight: Kpoints from vasprun.xml                
   0.00000000  0.00000000  0.00000000       0.040
   0.02895287 -0.01671595  0.00000000       0.240
   0.05790575 -0.03343190  0.00000000       0.240
   0.05790575  0.00000000  0.00000000       0.240
  -0.05790575  0.06686380  0.00000000       0.240

 k-points in reciprocal lattice and weights: Kpoints from vasprun.xml                
   0.00000000  0.00000000  0.00000000       0.040
   0.20000000  0.00000000  0.00000000       0.240
   0.40000000  0.00000000  0.00000000       0.240
   0.40000000  0.20000000  0.00000000       0.240
  -0.40000000  0.20000000  0.00000000       0.240

 position of ions in fractional coordinates (direct lattice) 
   0.33333300  0.33333300  0.49992500
   0.66666700  0.66666700  0.50007500
   0.00000000  0.00000000  0.44821600
   0.00000000  0.00000000  0.55178400
   0.62635700  0.00042000  0.57375200
   0.00042000  0.37322400  0.57375200
   0.37322400  0.62635700  0.57375200
   0.37364300  0.99958000  0.42624800
   0.99958000  0.62677600  0.42624800
   0.62677600  0.37364300  0.42624800

 position of ions in cartesian coordinates  (Angst):
   3.45388488  1.99410134 11.72053566
   6.90778012  3.98820866 11.72405234
   0.00000000  0.00000000 10.50823946
   0.00000000  0.00000000 12.93634854
   4.32818511  0.00251257 13.45137925
   1.29197516  2.23274167 13.45137925
   4.74151509  3.74706174 13.45137925
   6.03347989  5.97979743  9.99320875
   9.06968984  3.74956833  9.99320875
   5.62014991  2.23524826  9.99320875



--------------------------------------------------------------------------------------------------------


 k-point  1 :   0.0000 0.0000 0.0000  plane waves:   26073
 k-point  2 :   0.2000 0.0000 0.0000  plane waves:   26070
 k-point  3 :   0.4000 0.0000 0.0000  plane waves:   26086
 k-point  4 :   0.4000 0.2000 0.0000  plane waves:   26085
 k-point  5 :  -0.4000 0.2000 0.0000  plane waves:   26115

 maximum and minimum number of plane-waves per node :     26115    26070

 maximum number of plane-waves:     26115
 maximum index in each direction: 
   IXMAX=   13   IYMAX=   12   IZMAX=   43
   IXMIN=  -13   IYMIN=  -13   IZMIN=  -43


 serial   3D FFT for wavefunctions
 parallel 3D FFT for charge:
    minimum data exchange during FFTs selected (reduces bandwidth)


 total amount of memory used by VASP MPI-rank0   128255. kBytes
=======================================================================

   base      :      30000. kBytes
   nonlr-proj:       5770. kBytes
   fftplans  :      11247. kBytes
   grid      :      68332. kBytes
   one-center:        311. kBytes
   wavefun   :      12595. kBytes

     INWAV:  cpu time    0.0000: real time    0.0004
 Broyden mixing: mesh for mixing (old mesh)
   NGX = 25   NGY = 25   NGZ = 87
  (NGX  =108   NGY  =108   NGZ  =360)
  gives a total of  54375 points

 initial charge density was supplied:
 charge density of overlapping atoms calculated
 number of electron      57.0000000 magnetization      14.8000000
 keeping initial charge density in first step


--------------------------------------------------------------------------------------------------------


 Maximum index for non-local projection operator         7247
 Maximum index for augmentation-charges         1662 (set IRDMAX)


--------------------------------------------------------------------------------------------------------


 First call to EWALD:  gamma=   0.179
 Maximum number of real-space cells 4x 4x 1
 Maximum number of reciprocal cells 2x 2x 6

    FEWALD:  cpu time    0.0040: real time    0.0014


--------------------------------------- Iteration      1(   1)  ---------------------------------------


vdW kernel read from vdw_kernel.bindat
  0.0000  0.2424  0.5071  0.7962  1.1119  1.4567  1.8333  2.2446  2.6937  3.1842
  3.7199  4.3049  4.9438  5.6415  6.4036  7.2358  8.1446  9.1372 10.2212 11.4050
 12.6979 14.1099 15.6519 17.3360 19.1751 21.1837 23.3773 25.7729 28.3892 31.2465
 34.3669 37.7748 41.4965 45.5611 50.0000

    POTLOK:  cpu time   52.7080: real time   52.7595
    SETDIJ:  cpu time    0.0440: real time    0.0414
     EDDAV:  cpu time   22.5040: real time   22.5943
 BZINTS: Fermi energy:  5.510817; 57.000000 electrons
         Band energy: -20.432590;  BLOECHL correction: -0.038689
       DOS:  cpu time    0.0040: real time    0.0048
    --------------------------------------------
      LOOP:  cpu time   75.2600: real time   75.4000

 eigenvalue-minimisations  :   960
 total energy-change (2. order) : 0.4085260E+03  (-0.1667947E+04)
 number of electron      57.0000000 magnetization      14.8000000
 augmentation part       57.0000000 magnetization      14.8000000

 Free energy of the ion-electron system (eV)
  ---------------------------------------------------
  alpha Z        PSCENC =        18.65691695
  Ewald energy   TEWEN  =      6221.61188061
  -Hartree energ DENC   =     -8428.34184557
  -exchange      EXHF   =         0.00000000
  -V(xc)+E(xc)   XCENC  =        23.44842540
  PAW double counting   =      1124.22891962    -1033.92993748
  entropy T*S    EENTRO =         0.00000000
  eigenvalues    EBANDS =       -20.43259013
  atomic energy  EATOM  =      2503.28425743
  Solvation  Ediel_sol  =         0.00000000
  ---------------------------------------------------
  free energy    TOTEN  =       408.52602682 eV

  energy without entropy =      408.52602682  energy(sigma->0) =      408.52602682


--------------------------------------------------------------------------------------------------------




--------------------------------------- Iteration      1(   2)  ---------------------------------------


     EDDAV:  cpu time   26.3440: real time   26.6289
 BZINTS: Fermi energy: -1.240037; 57.000000 electrons
         Band energy:-391.775442;  BLOECHL correction: -0.111232
       DOS:  cpu time    0.0040: real time    0.0050
    --------------------------------------------
      LOOP:  cpu time   26.3480: real time   26.6339

 eigenvalue-minimisations  :  1152
 total energy-change (2. order) :-0.3713429E+03  (-0.3372078E+03)
 number of electron      57.0000000 magnetization      14.8000000
 augmentation part       57.0000000 magnetization      14.8000000

 Free energy of the ion-electron system (eV)
  ---------------------------------------------------
  alpha Z        PSCENC =        18.65691695
  Ewald energy   TEWEN  =      6221.61188061
  -Hartree energ DENC   =     -8428.34184557
  -exchange      EXHF   =         0.00000000
  -V(xc)+E(xc)   XCENC  =        23.44842540
  PAW double counting   =      1124.22891962    -1033.92993748
  entropy T*S    EENTRO =         0.00000000
  eigenvalues    EBANDS =      -391.77544214
  atomic energy  EATOM  =      2503.28425743
  Solvation  Ediel_sol  =         0.00000000
  ---------------------------------------------------
  free energy    TOTEN  =        37.18317481 eV

  energy without entropy =       37.18317481  energy(sigma->0) =       37.18317481


--------------------------------------------------------------------------------------------------------




--------------------------------------- Iteration      1(   3)  ---------------------------------------


     EDDAV:  cpu time   31.7000: real time   31.8066
 BZINTS: Fermi energy: -2.732903; 57.000000 electrons
         Band energy:-479.070027;  BLOECHL correction: -0.009208
       DOS:  cpu time    0.0080: real time    0.0053
    --------------------------------------------
      LOOP:  cpu time   31.7080: real time   31.8119

 eigenvalue-minimisations  :  1408
 total energy-change (2. order) :-0.8729458E+02  (-0.8264550E+02)
 number of electron      57.0000000 magnetization      14.8000000
 augmentation part       57.0000000 magnetization      14.8000000

 Free energy of the ion-electron system (eV)
  ---------------------------------------------------
  alpha Z        PSCENC =        18.65691695
  Ewald energy   TEWEN  =      6221.61188061
  -Hartree energ DENC   =     -8428.34184557
  -exchange      EXHF   =         0.00000000
  -V(xc)+E(xc)   XCENC  =        23.44842540
  PAW double counting   =      1124.22891962    -1033.92993748
  entropy T*S    EENTRO =         0.00000000
  eigenvalues    EBANDS =      -479.07002683
  atomic energy  EATOM  =      2503.28425743
  Solvation  Ediel_sol  =         0.00000000
  ---------------------------------------------------
  free energy    TOTEN  =       -50.11140987 eV

  energy without entropy =      -50.11140987  energy(sigma->0) =      -50.11140987


--------------------------------------------------------------------------------------------------------




--------------------------------------- Iteration      1(   4)  ---------------------------------------


     EDDAV:  cpu time   30.2600: real time   30.4257
 BZINTS: Fermi energy: -2.780326; 57.000000 electrons
         Band energy:-484.351868;  BLOECHL correction: -0.010952
       DOS:  cpu time    0.0040: real time    0.0051
    --------------------------------------------
      LOOP:  cpu time   30.2640: real time   30.4309

 eigenvalue-minimisations  :  1344
 total energy-change (2. order) :-0.5281841E+01  (-0.5168461E+01)
 number of electron      57.0000000 magnetization      14.8000000
 augmentation part       57.0000000 magnetization      14.8000000

 Free energy of the ion-electron system (eV)
  ---------------------------------------------------
  alpha Z        PSCENC =        18.65691695
  Ewald energy   TEWEN  =      6221.61188061
  -Hartree energ DENC   =     -8428.34184557
  -exchange      EXHF   =         0.00000000
  -V(xc)+E(xc)   XCENC  =        23.44842540
  PAW double counting   =      1124.22891962    -1033.92993748
  entropy T*S    EENTRO =         0.00000000
  eigenvalues    EBANDS =      -484.35186770
  atomic energy  EATOM  =      2503.28425743
  Solvation  Ediel_sol  =         0.00000000
  ---------------------------------------------------
  free energy    TOTEN  =       -55.39325075 eV

  energy without entropy =      -55.39325075  energy(sigma->0) =      -55.39325075


--------------------------------------------------------------------------------------------------------




--------------------------------------- Iteration      1(   5)  ---------------------------------------


     EDDAV:  cpu time   30.0760: real time   30.1060
 BZINTS: Fermi energy: -2.782213; 57.000000 electrons
         Band energy:-484.483098;  BLOECHL correction: -0.011083
       DOS:  cpu time    0.0040: real time    0.0058
    CHARGE:  cpu time    1.9280: real time    1.9246
    MIXING:  cpu time    0.0400: real time    0.0415
    --------------------------------------------
      LOOP:  cpu time   32.0480: real time   32.0780

 eigenvalue-minimisations  :  1328
 total energy-change (2. order) :-0.1312306E+00  (-0.1309469E+00)
 number of electron      56.9999995 magnetization      13.5348189
 augmentation part       -4.3743880 magnetization      12.2827510

 Broyden mixing:
  rms(total) = 0.31092E+01    rms(broyden)= 0.31092E+01
  rms(prec ) = 0.33802E+01
  weight for this iteration     100.00

 Free energy of the ion-electron system (eV)
  ---------------------------------------------------
  alpha Z        PSCENC =        18.65691695
  Ewald energy   TEWEN  =      6221.61188061
  -Hartree energ DENC   =     -8428.34184557
  -exchange      EXHF   =         0.00000000
  -V(xc)+E(xc)   XCENC  =        23.44842540
  PAW double counting   =      1124.22891962    -1033.92993748
  entropy T*S    EENTRO =         0.00000000
  eigenvalues    EBANDS =      -484.48309825
  atomic energy  EATOM  =      2503.28425743
  Solvation  Ediel_sol  =         0.00000000
  ---------------------------------------------------
  free energy    TOTEN  =       -55.52448130 eV

  energy without entropy =      -55.52448130  energy(sigma->0) =      -55.52448130


--------------------------------------------------------------------------------------------------------




--------------------------------------- Iteration      1(   6)  ---------------------------------------


    POTLOK:  cpu time   52.6200: real time   52.6363
    SETDIJ:  cpu time    0.0400: real time    0.0403
     EDDAV:  cpu time   29.6040: real time   29.8396
 BZINTS: Fermi energy: -5.089897; 57.000000 electrons
         Band energy:-608.464270;  BLOECHL correction: -0.028238
       DOS:  cpu time    0.0080: real time    0.0074
    CHARGE:  cpu time    1.9480: real time    1.9509
    MIXING:  cpu time    0.0400: real time    0.0417
    --------------------------------------------
      LOOP:  cpu time   84.2600: real time   84.5162

 eigenvalue-minimisations  :  1312
 total energy-change (2. order) :-0.7662033E+02  (-0.3102642E+02)
 number of electron      56.9999993 magnetization      13.2340791
 augmentation part        9.6811109 magnetization       8.9230991

 Broyden mixing:
  rms(total) = 0.64032E+01    rms(broyden)= 0.64031E+01
  rms(prec ) = 0.72129E+01
  weight for this iteration     100.00

 eigenvalues of (default mixing * dielectric matrix)
  average eigenvalue GAMMA=   0.3643
  0.3643

 Free energy of the ion-electron system (eV)
  ---------------------------------------------------
  alpha Z        PSCENC =        18.65691695
  Ewald energy   TEWEN  =      6221.61188061
  -Hartree energ DENC   =     -8390.81267740
  -exchange      EXHF   =         0.00000000
  -V(xc)+E(xc)   XCENC  =        23.06042781
  PAW double counting   =      1055.37427081     -954.85561795
  entropy T*S    EENTRO =         0.00000000
  eigenvalues    EBANDS =      -608.46427003
  atomic energy  EATOM  =      2503.28425743
  Solvation  Ediel_sol  =         0.00000000
  ---------------------------------------------------
  free energy    TOTEN  =      -132.14481177 eV

  energy without entropy =     -132.14481177  energy(sigma->0) =     -132.14481177


--------------------------------------------------------------------------------------------------------




--------------------------------------- Iteration      1(   7)  ---------------------------------------


    POTLOK:  cpu time   52.1480: real time   52.2325
    SETDIJ:  cpu time    0.0440: real time    0.0427
     EDDAV:  cpu time   26.3600: real time   26.4101
 BZINTS: Fermi energy: -3.786760; 57.000000 electrons
         Band energy:-473.796879;  BLOECHL correction: -0.009232
       DOS:  cpu time    0.0080: real time    0.0074
    CHARGE:  cpu time    1.9680: real time    1.9742
    MIXING:  cpu time    0.0440: real time    0.0425
    --------------------------------------------
      LOOP:  cpu time   80.5720: real time   80.7094

 eigenvalue-minimisations  :  1152
 total energy-change (2. order) : 0.8973782E+02  (-0.1465024E+02)
 number of electron      56.9999995 magnetization      12.8581600
 augmentation part       -1.5531782 magnetization       9.8887843

 Broyden mixing:
  rms(total) = 0.18962E+01    rms(broyden)= 0.18961E+01
  rms(prec ) = 0.19289E+01
  weight for this iteration     100.00

 eigenvalues of (default mixing * dielectric matrix)
  average eigenvalue GAMMA=   0.3795
  0.4998  0.2593

 Free energy of the ion-electron system (eV)
  ---------------------------------------------------
  alpha Z        PSCENC =        18.65691695
  Ewald energy   TEWEN  =      6221.61188061
  -Hartree energ DENC   =     -8423.92451104
  -exchange      EXHF   =         0.00000000
  -V(xc)+E(xc)   XCENC  =        21.64939832
  PAW double counting   =      1125.52145448    -1035.40951405
  entropy T*S    EENTRO =         0.00000000
  eigenvalues    EBANDS =      -473.79687940
  atomic energy  EATOM  =      2503.28425743
  Solvation  Ediel_sol  =         0.00000000
  ---------------------------------------------------
  free energy    TOTEN  =       -42.40699671 eV

  energy without entropy =      -42.40699671  energy(sigma->0) =      -42.40699671


--------------------------------------------------------------------------------------------------------




--------------------------------------- Iteration      1(   8)  ---------------------------------------


    POTLOK:  cpu time   52.5720: real time   52.6676
    SETDIJ:  cpu time    0.0760: real time    0.0768
     EDDAV:  cpu time   36.3000: real time   37.0939
 BZINTS: Fermi energy: -4.594575; 57.000000 electrons
         Band energy:-567.849883;  BLOECHL correction:  0.000000
       DOS:  cpu time    0.0000: real time    0.0029
    CHARGE:  cpu time    1.9480: real time    1.9568
    MIXING:  cpu time    0.0440: real time    0.0451
    --------------------------------------------
      LOOP:  cpu time   90.9400: real time   91.8430

 eigenvalue-minimisations  :  1664
 total energy-change (2. order) :-0.8904786E+02  (-0.8536755E+02)
 number of electron      56.9999995 magnetization      12.8470713
 augmentation part       -0.6069544 magnetization      11.6815795

 Broyden mixing:
  rms(total) = 0.24592E+01    rms(broyden)= 0.24115E+01
  rms(prec ) = 0.24457E+01
  weight for this iteration     100.00

 eigenvalues of (default mixing * dielectric matrix)
  average eigenvalue GAMMA=   0.2565
  0.4951  0.2586  0.0159

 Free energy of the ion-electron system (eV)
  ---------------------------------------------------
  alpha Z        PSCENC =        18.65691695
  Ewald energy   TEWEN  =      6221.61188061
  -Hartree energ DENC   =     -8419.25345606
  -exchange      EXHF   =         0.00000000
  -V(xc)+E(xc)   XCENC  =        21.21050442
  PAW double counting   =      1115.77327211    -1024.88834549
  entropy T*S    EENTRO =         0.00000000
  eigenvalues    EBANDS =      -567.84988324
  atomic energy  EATOM  =      2503.28425743
  Solvation  Ediel_sol  =         0.00000000
  ---------------------------------------------------
  free energy    TOTEN  =      -131.45485326 eV

  energy without entropy =     -131.45485326  energy(sigma->0) =     -131.45485326


--------------------------------------------------------------------------------------------------------




--------------------------------------- Iteration      1(   9)  ---------------------------------------


    POTLOK:  cpu time   51.6320: real time   51.9035
    SETDIJ:  cpu time    0.0360: real time    0.0385
     EDDAV:  cpu time   28.5640: real time   28.7034
 BZINTS: Fermi energy: -4.569269; 57.000000 electrons
         Band energy:-524.701982;  BLOECHL correction:  0.000000
       DOS:  cpu time    0.0000: real time    0.0035
    CHARGE:  cpu time    1.9320: real time    1.9358
    MIXING:  cpu time    0.0400: real time    0.0418
    --------------------------------------------
      LOOP:  cpu time   82.2040: real time   82.6265

 eigenvalue-minimisations  :  1280
 total energy-change (2. order) : 0.4383757E+02  (-0.1475340E+03)
 number of electron      56.9999995 magnetization      12.8176773
 augmentation part       -0.6056051 magnetization      11.6488516

 Broyden mixing:
  rms(total) = 0.18372E+01    rms(broyden)= 0.17865E+01
  rms(prec ) = 0.18467E+01
  weight for this iteration     100.00

 eigenvalues of (default mixing * dielectric matrix)
  average eigenvalue GAMMA=   0.1981
  0.4846  0.2567  0.0298  0.0211

 Free energy of the ion-electron system (eV)
  ---------------------------------------------------
  alpha Z        PSCENC =        18.65691695
  Ewald energy   TEWEN  =      6221.61188061
  -Hartree energ DENC   =     -8419.19471091
  -exchange      EXHF   =         0.00000000
  -V(xc)+E(xc)   XCENC  =        21.77487309
  PAW double counting   =      1115.57200492    -1024.62052030
  entropy T*S    EENTRO =         0.00000000
  eigenvalues    EBANDS =      -524.70198181
  atomic energy  EATOM  =      2503.28425743
  Solvation  Ediel_sol  =         0.00000000
  ---------------------------------------------------
  free energy    TOTEN  =       -87.61728001 eV

  energy without entropy =      -87.61728001  energy(sigma->0) =      -87.61728001


--------------------------------------------------------------------------------------------------------




--------------------------------------- Iteration      1(  10)  ---------------------------------------


    POTLOK:  cpu time   50.7520: real time   50.9036
    SETDIJ:  cpu time    0.0400: real time    0.0393
     EDDAV:  cpu time   26.5520: real time   26.6481
 BZINTS: Fermi energy: -4.146769; 57.000000 electrons
         Band energy:-482.908959;  BLOECHL correction:  0.000000
       DOS:  cpu time    0.0040: real time    0.0032
    CHARGE:  cpu time    1.8840: real time    1.8901
    MIXING:  cpu time    0.0440: real time    0.0424
    --------------------------------------------
      LOOP:  cpu time   79.2760: real time   79.5266

 eigenvalue-minimisations  :  1184
 total energy-change (2. order) : 0.4238017E+02  (-0.6072301E+02)
 number of electron      56.9999994 magnetization      12.1771448
 augmentation part       -0.5948071 magnetization       9.0540507

 Broyden mixing:
  rms(total) = 0.10783E+01    rms(broyden)= 0.10647E+01
  rms(prec ) = 0.10719E+01
  weight for this iteration     100.00

 eigenvalues of (default mixing * dielectric matrix)
  average eigenvalue GAMMA=   0.3681
  0.7554  0.7554  0.2679  0.0436  0.0184

 Free energy of the ion-electron system (eV)
  ---------------------------------------------------
  alpha Z        PSCENC =        18.65691695
  Ewald energy   TEWEN  =      6221.61188061
  -Hartree energ DENC   =     -8418.43997331
  -exchange      EXHF   =         0.00000000
  -V(xc)+E(xc)   XCENC  =        21.58710894
  PAW double counting   =      1115.13667825    -1024.16502150
  entropy T*S    EENTRO =         0.00000000
  eigenvalues    EBANDS =      -482.90895927
  atomic energy  EATOM  =      2503.28425743
  Solvation  Ediel_sol  =         0.00000000
  ---------------------------------------------------
  free energy    TOTEN  =       -45.23711189 eV

  energy without entropy =      -45.23711189  energy(sigma->0) =      -45.23711189


--------------------------------------------------------------------------------------------------------




--------------------------------------- Iteration      1(  11)  ---------------------------------------


    POTLOK:  cpu time   50.6640: real time   50.9113
    SETDIJ:  cpu time    0.0440: real time    0.0412
     EDDAV:  cpu time   32.4160: real time   32.5288
 BZINTS: Fermi energy: -4.256210; 57.000000 electrons
         Band energy:-484.076000;  BLOECHL correction:  0.000000
       DOS:  cpu time    0.0000: real time    0.0031
    CHARGE:  cpu time    1.9040: real time    1.9042
    MIXING:  cpu time    0.0440: real time    0.0429
    --------------------------------------------
      LOOP:  cpu time   85.0720: real time   85.4316

 eigenvalue-minimisations  :  1488
 total energy-change (2. order) :-0.2160320E+01  (-0.1756485E+00)
 number of electron      56.9999994 magnetization      11.3516829
 augmentation part       -0.6016856 magnetization       8.7810490

 Broyden mixing:
  rms(total) = 0.41258E+00    rms(broyden)= 0.41116E+00
  rms(prec ) = 0.41772E+00
  weight for this iteration     100.00

 eigenvalues of (default mixing * dielectric matrix)
  average eigenvalue GAMMA=   0.4885
  0.9787  0.9787  0.6450  0.2656  0.0446  0.0183

 Free energy of the ion-electron system (eV)
  ---------------------------------------------------
  alpha Z        PSCENC =        18.65691695
  Ewald energy   TEWEN  =      6221.61188061
  -Hartree energ DENC   =     -8421.11403046
  -exchange      EXHF   =         0.00000000
  -V(xc)+E(xc)   XCENC  =        23.23353081
  PAW double counting   =      1120.65589195    -1029.64987939
  entropy T*S    EENTRO =         0.00000000
  eigenvalues    EBANDS =      -484.07599952
  atomic energy  EATOM  =      2503.28425743
  Solvation  Ediel_sol  =         0.00000000
  ---------------------------------------------------
  free energy    TOTEN  =       -47.39743161 eV

  energy without entropy =      -47.39743161  energy(sigma->0) =      -47.39743161


--------------------------------------------------------------------------------------------------------




--------------------------------------- Iteration      1(  12)  ---------------------------------------


    POTLOK:  cpu time   50.7440: real time   50.9178
    SETDIJ:  cpu time    0.0400: real time    0.0383
     EDDAV:  cpu time   31.5760: real time   31.7995
 BZINTS: Fermi energy: -4.284025; 57.000000 electrons
         Band energy:-485.520912;  BLOECHL correction:  0.000000
       DOS:  cpu time    0.0040: real time    0.0034
    CHARGE:  cpu time    1.8960: real time    1.8991
    MIXING:  cpu time    0.0440: real time    0.0443
    --------------------------------------------
      LOOP:  cpu time   84.3040: real time   84.7023

 eigenvalue-minimisations  :  1440
 total energy-change (2. order) :-0.4512157E+00  (-0.8569666E-01)
 number of electron      56.9999994 magnetization      10.7441692
 augmentation part       -0.4824224 magnetization       8.4471146

 Broyden mixing:
  rms(total) = 0.33004E+00    rms(broyden)= 0.32997E+00
  rms(prec ) = 0.33652E+00
  weight for this iteration     100.00

 eigenvalues of (default mixing * dielectric matrix)
  average eigenvalue GAMMA=   0.5651
  1.2044  0.9245  0.9245  0.5735  0.2658  0.0446  0.0183

 Free energy of the ion-electron system (eV)
  ---------------------------------------------------
  alpha Z        PSCENC =        18.65691695
  Ewald energy   TEWEN  =      6221.61188061
  -Hartree energ DENC   =     -8421.17699533
  -exchange      EXHF   =         0.00000000
  -V(xc)+E(xc)   XCENC  =        24.80106006
  PAW double counting   =      1117.86632749    -1027.37118239
  entropy T*S    EENTRO =         0.00000000
  eigenvalues    EBANDS =      -485.52091210
  atomic energy  EATOM  =      2503.28425743
  Solvation  Ediel_sol  =         0.00000000
  ---------------------------------------------------
  free energy    TOTEN  =       -47.84864728 eV

  energy without entropy =      -47.84864728  energy(sigma->0) =      -47.84864728


--------------------------------------------------------------------------------------------------------




--------------------------------------- Iteration      1(  13)  ---------------------------------------


    POTLOK:  cpu time   51.0120: real time   51.1362
    SETDIJ:  cpu time    0.0440: real time    0.0408
     EDDAV:  cpu time   33.0360: real time   33.1390
 BZINTS: Fermi energy: -4.291077; 57.000000 electrons
         Band energy:-486.517777;  BLOECHL correction:  0.000000
       DOS:  cpu time    0.0000: real time    0.0033
    CHARGE:  cpu time    1.8920: real time    1.8913
    MIXING:  cpu time    0.0440: real time    0.0445
    --------------------------------------------
      LOOP:  cpu time   86.0280: real time   86.2551

 eigenvalue-minimisations  :  1504
 total energy-change (2. order) :-0.1221137E+00  (-0.2399572E-01)
 number of electron      56.9999994 magnetization      10.0839652
 augmentation part       -0.4673369 magnetization       7.8678196

 Broyden mixing:
  rms(total) = 0.37152E+00    rms(broyden)= 0.37152E+00
  rms(prec ) = 0.37855E+00
  weight for this iteration     100.00

 eigenvalues of (default mixing * dielectric matrix)
  average eigenvalue GAMMA=   0.6690
  2.3053  0.8786  0.8786  0.6412  0.2659  0.3199  0.0446  0.0183

 Free energy of the ion-electron system (eV)
  ---------------------------------------------------
  alpha Z        PSCENC =        18.65691695
  Ewald energy   TEWEN  =      6221.61188061
  -Hartree energ DENC   =     -8420.65062919
  -exchange      EXHF   =         0.00000000
  -V(xc)+E(xc)   XCENC  =        25.27629615
  PAW double counting   =      1116.69476548    -1026.32647192
  entropy T*S    EENTRO =         0.00000000
  eigenvalues    EBANDS =      -486.51777652
  atomic energy  EATOM  =      2503.28425743
  Solvation  Ediel_sol  =         0.00000000
  ---------------------------------------------------
  free energy    TOTEN  =       -47.97076100 eV

  energy without entropy =      -47.97076100  energy(sigma->0) =      -47.97076100


--------------------------------------------------------------------------------------------------------




--------------------------------------- Iteration      1(  14)  ---------------------------------------


    POTLOK:  cpu time   50.7560: real time   50.9102
    SETDIJ:  cpu time    0.0520: real time    0.0528
     EDDAV:  cpu time   33.6800: real time   33.7625
 BZINTS: Fermi energy: -4.260449; 57.000000 electrons
         Band energy:-487.391778;  BLOECHL correction:  0.000000
       DOS:  cpu time    0.0040: real time    0.0039
    CHARGE:  cpu time    1.9080: real time    1.9219
    MIXING:  cpu time    0.0440: real time    0.0452
    --------------------------------------------
      LOOP:  cpu time   86.4440: real time   86.6965

 eigenvalue-minimisations  :  1536
 total energy-change (2. order) :-0.9203053E-01  (-0.1136611E-01)
 number of electron      56.9999994 magnetization       9.2814896
 augmentation part       -0.4852921 magnetization       7.0829816

 Broyden mixing:
  rms(total) = 0.32015E+00    rms(broyden)= 0.32015E+00
  rms(prec ) = 0.32167E+00
  weight for this iteration     100.00

 eigenvalues of (default mixing * dielectric matrix)
  average eigenvalue GAMMA=   0.7559
  2.7063  1.0204  1.0204  0.7012  0.7012  0.2658  0.3251  0.0446  0.0183

 Free energy of the ion-electron system (eV)
  ---------------------------------------------------
  alpha Z        PSCENC =        18.65691695
  Ewald energy   TEWEN  =      6221.61188061
  -Hartree energ DENC   =     -8419.86121203
  -exchange      EXHF   =         0.00000000
  -V(xc)+E(xc)   XCENC  =        25.31661361
  PAW double counting   =      1115.90176496    -1025.58123532
  entropy T*S    EENTRO =         0.00000000
  eigenvalues    EBANDS =      -487.39177773
  atomic energy  EATOM  =      2503.28425743
  Solvation  Ediel_sol  =         0.00000000
  ---------------------------------------------------
  free energy    TOTEN  =       -48.06279152 eV

  energy without entropy =      -48.06279152  energy(sigma->0) =      -48.06279152


--------------------------------------------------------------------------------------------------------




--------------------------------------- Iteration      1(  15)  ---------------------------------------


    POTLOK:  cpu time   50.9040: real time   50.9723
    SETDIJ:  cpu time    0.0400: real time    0.0393
     EDDAV:  cpu time   29.7200: real time   29.8196
 BZINTS: Fermi energy: -4.277073; 57.000000 electrons
         Band energy:-487.976257;  BLOECHL correction:  0.000000
       DOS:  cpu time    0.0000: real time    0.0034
    CHARGE:  cpu time    1.8920: real time    1.8965
    MIXING:  cpu time    0.0480: real time    0.0486
    --------------------------------------------
      LOOP:  cpu time   82.6040: real time   82.7796

 eigenvalue-minimisations  :  1344
 total energy-change (2. order) :-0.1658506E+00  (-0.8502482E-02)
 number of electron      56.9999994 magnetization       7.9211541
 augmentation part       -0.5006483 magnetization       5.6535548

 Broyden mixing:
  rms(total) = 0.21819E+00    rms(broyden)= 0.21819E+00
  rms(prec ) = 0.22004E+00
  weight for this iteration     100.00

 eigenvalues of (default mixing * dielectric matrix)
  average eigenvalue GAMMA=   0.9777
  4.3123  1.1660  1.1660  0.9089  0.9089  0.6575  0.2658  0.3281  0.0446  0.0183

 Free energy of the ion-electron system (eV)
  ---------------------------------------------------
  alpha Z        PSCENC =        18.65691695
  Ewald energy   TEWEN  =      6221.61188061
  -Hartree energ DENC   =     -8418.64112759
  -exchange      EXHF   =         0.00000000
  -V(xc)+E(xc)   XCENC  =        24.63108078
  PAW double counting   =      1114.82498841    -1024.62038122
  entropy T*S    EENTRO =         0.00000000
  eigenvalues    EBANDS =      -487.97625745
  atomic energy  EATOM  =      2503.28425743
  Solvation  Ediel_sol  =         0.00000000
  ---------------------------------------------------
  free energy    TOTEN  =       -48.22864208 eV

  energy without entropy =      -48.22864208  energy(sigma->0) =      -48.22864208


--------------------------------------------------------------------------------------------------------




--------------------------------------- Iteration      1(  16)  ---------------------------------------


    POTLOK:  cpu time   50.9200: real time   50.9660
    SETDIJ:  cpu time    0.0400: real time    0.0424
     EDDAV:  cpu time   28.7640: real time   28.8567
 BZINTS: Fermi energy: -4.245792; 57.000000 electrons
         Band energy:-489.310345;  BLOECHL correction:  0.000000
       DOS:  cpu time    0.0040: real time    0.0037
    CHARGE:  cpu time    1.9120: real time    1.9141
    MIXING:  cpu time    0.0480: real time    0.0490
    --------------------------------------------
      LOOP:  cpu time   81.6880: real time   81.8319

 eigenvalue-minimisations  :  1296
 total energy-change (2. order) :-0.1552976E+00  (-0.6725650E-02)
 number of electron      56.9999994 magnetization       7.1007637
 augmentation part       -0.4972912 magnetization       4.7709098

 Broyden mixing:
  rms(total) = 0.97812E-01    rms(broyden)= 0.97812E-01
  rms(prec ) = 0.99953E-01
  weight for this iteration     100.00

 eigenvalues of (default mixing * dielectric matrix)
  average eigenvalue GAMMA=   1.1994
  6.2912  1.7882  1.0715  1.0715  0.8415  0.8415  0.6310  0.2658  0.3285  0.0446
  0.0183

 Free energy of the ion-electron system (eV)
  ---------------------------------------------------
  alpha Z        PSCENC =        18.65691695
  Ewald energy   TEWEN  =      6221.61188061
  -Hartree energ DENC   =     -8416.64308950
  -exchange      EXHF   =         0.00000000
  -V(xc)+E(xc)   XCENC  =        23.69081680
  PAW double counting   =      1114.74211780    -1024.41649523
  entropy T*S    EENTRO =         0.00000000
  eigenvalues    EBANDS =      -489.31034456
  atomic energy  EATOM  =      2503.28425743
  Solvation  Ediel_sol  =         0.00000000
  ---------------------------------------------------
  free energy    TOTEN  =       -48.38393970 eV

  energy without entropy =      -48.38393970  energy(sigma->0) =      -48.38393970


--------------------------------------------------------------------------------------------------------




--------------------------------------- Iteration      1(  17)  ---------------------------------------


    POTLOK:  cpu time   50.5720: real time   50.8067
    SETDIJ:  cpu time    0.0360: real time    0.0394
     EDDAV:  cpu time   23.3560: real time   23.4062
 BZINTS: Fermi energy: -4.285453; 57.000000 electrons
         Band energy:-490.280890;  BLOECHL correction:  0.000000
       DOS:  cpu time    0.0000: real time    0.0033
    CHARGE:  cpu time    1.8920: real time    1.9049
    MIXING:  cpu time    0.0480: real time    0.0483
    --------------------------------------------
      LOOP:  cpu time   75.9040: real time   76.2089

 eigenvalue-minimisations  :  1008
 total energy-change (2. order) :-0.4671566E-01  (-0.2850040E-02)
 number of electron      56.9999994 magnetization       6.9287672
 augmentation part       -0.4854069 magnetization       4.5815208

 Broyden mixing:
  rms(total) = 0.76692E-01    rms(broyden)= 0.76692E-01
  rms(prec ) = 0.79111E-01
  weight for this iteration     100.00

 eigenvalues of (default mixing * dielectric matrix)
  average eigenvalue GAMMA=   1.4129
  8.4962  2.3860  1.1342  1.1342  0.8788  0.8788  0.7592  0.6297  0.2658  0.3284
  0.0446  0.0183

 Free energy of the ion-electron system (eV)
  ---------------------------------------------------
  alpha Z        PSCENC =        18.65691695
  Ewald energy   TEWEN  =      6221.61188061
  -Hartree energ DENC   =     -8415.49609574
  -exchange      EXHF   =         0.00000000
  -V(xc)+E(xc)   XCENC  =        23.49305697
  PAW double counting   =      1114.65833444    -1024.35811641
  entropy T*S    EENTRO =         0.00000000
  eigenvalues    EBANDS =      -490.28088961
  atomic energy  EATOM  =      2503.28425743
  Solvation  Ediel_sol  =         0.00000000
  ---------------------------------------------------
  free energy    TOTEN  =       -48.43065536 eV

  energy without entropy =      -48.43065536  energy(sigma->0) =      -48.43065536


--------------------------------------------------------------------------------------------------------




--------------------------------------- Iteration      1(  18)  ---------------------------------------


    POTLOK:  cpu time   50.5800: real time   50.8998
    SETDIJ:  cpu time    0.0400: real time    0.0389
     EDDAV:  cpu time   28.4320: real time   28.5743
 BZINTS: Fermi energy: -4.259502; 57.000000 electrons
         Band energy:-490.688723;  BLOECHL correction:  0.000000
       DOS:  cpu time    0.0040: real time    0.0039
    CHARGE:  cpu time    1.8840: real time    1.8919
    MIXING:  cpu time    0.0520: real time    0.0496
    --------------------------------------------
      LOOP:  cpu time   80.9920: real time   81.4585

 eigenvalue-minimisations  :  1280
 total energy-change (2. order) :-0.9177270E-02  (-0.6174764E-03)
 number of electron      56.9999994 magnetization       6.9058891
 augmentation part       -0.4972060 magnetization       4.5630588

 Broyden mixing:
  rms(total) = 0.63208E-01    rms(broyden)= 0.63208E-01
  rms(prec ) = 0.65081E-01
  weight for this iteration     100.00

 eigenvalues of (default mixing * dielectric matrix)
  average eigenvalue GAMMA=   1.4336
  9.0698  2.4845  1.1978  1.1978  0.9156  0.9156  0.7850  0.7850  0.6280  0.2658
  0.3284  0.0446  0.0183

 Free energy of the ion-electron system (eV)
  ---------------------------------------------------
  alpha Z        PSCENC =        18.65691695
  Ewald energy   TEWEN  =      6221.61188061
  -Hartree energ DENC   =     -8415.19581504
  -exchange      EXHF   =         0.00000000
  -V(xc)+E(xc)   XCENC  =        23.56462976
  PAW double counting   =      1115.23484180    -1024.90782087
  entropy T*S    EENTRO =         0.00000000
  eigenvalues    EBANDS =      -490.68872328
  atomic energy  EATOM  =      2503.28425743
  Solvation  Ediel_sol  =         0.00000000
  ---------------------------------------------------
  free energy    TOTEN  =       -48.43983263 eV

  energy without entropy =      -48.43983263  energy(sigma->0) =      -48.43983263


--------------------------------------------------------------------------------------------------------




--------------------------------------- Iteration      1(  19)  ---------------------------------------


    POTLOK:  cpu time   50.5360: real time   50.9317
    SETDIJ:  cpu time    0.0560: real time    0.0560
     EDDAV:  cpu time   29.4640: real time   29.8000
 BZINTS: Fermi energy: -4.270919; 57.000000 electrons
         Band energy:-490.961655;  BLOECHL correction:  0.000000
       DOS:  cpu time    0.0040: real time    0.0036
    CHARGE:  cpu time    1.9080: real time    1.9157
    MIXING:  cpu time    0.0520: real time    0.0504
    --------------------------------------------
      LOOP:  cpu time   82.0200: real time   82.7574

 eigenvalue-minimisations  :  1344
 total energy-change (2. order) :-0.4738865E-02  (-0.1317627E-03)
 number of electron      56.9999994 magnetization       6.9093908
 augmentation part       -0.5062853 magnetization       4.5577119

 Broyden mixing:
  rms(total) = 0.59303E-01    rms(broyden)= 0.59303E-01
  rms(prec ) = 0.61079E-01
  weight for this iteration     100.00

 eigenvalues of (default mixing * dielectric matrix)
  average eigenvalue GAMMA=   1.4281
  9.1691  2.4999  1.2843  1.2843  1.0209  1.0209  0.8802  0.8802  0.6701  0.6264
  0.2658  0.3284  0.0183  0.0446

 Free energy of the ion-electron system (eV)
  ---------------------------------------------------
  alpha Z        PSCENC =        18.65691695
  Ewald energy   TEWEN  =      6221.61188061
  -Hartree energ DENC   =     -8414.90195298
  -exchange      EXHF   =         0.00000000
  -V(xc)+E(xc)   XCENC  =        23.54153007
  PAW double counting   =      1115.29508321    -1024.97063220
  entropy T*S    EENTRO =         0.00000000
  eigenvalues    EBANDS =      -490.96165458
  atomic energy  EATOM  =      2503.28425743
  Solvation  Ediel_sol  =         0.00000000
  ---------------------------------------------------
  free energy    TOTEN  =       -48.44457150 eV

  energy without entropy =      -48.44457150  energy(sigma->0) =      -48.44457150


--------------------------------------------------------------------------------------------------------




--------------------------------------- Iteration      1(  20)  ---------------------------------------


    POTLOK:  cpu time   50.9480: real time   51.1255
    SETDIJ:  cpu time    0.0400: real time    0.0383
     EDDAV:  cpu time   23.1640: real time   23.4692
 BZINTS: Fermi energy: -4.280191; 57.000000 electrons
         Band energy:-491.203199;  BLOECHL correction:  0.000000
       DOS:  cpu time    0.0000: real time    0.0038
    CHARGE:  cpu time    1.8600: real time    1.9429
    MIXING:  cpu time    0.0520: real time    0.0520
    --------------------------------------------
      LOOP:  cpu time   76.0640: real time   76.6316

 eigenvalue-minimisations  :  1024
 total energy-change (2. order) :-0.4209612E-02  (-0.5899033E-04)
 number of electron      56.9999994 magnetization       6.9146168
 augmentation part       -0.5074624 magnetization       4.5623545

 Broyden mixing:
  rms(total) = 0.55661E-01    rms(broyden)= 0.55661E-01
  rms(prec ) = 0.57475E-01
  weight for this iteration     100.00

 eigenvalues of (default mixing * dielectric matrix)
  average eigenvalue GAMMA=   1.4388
  9.1900  2.6170  2.0894  1.1429  1.1429  0.9063  0.9063  0.9236  0.0446  0.0183
  0.2658  0.3284  0.7370  0.6577  0.6113

 Free energy of the ion-electron system (eV)
  ---------------------------------------------------
  alpha Z        PSCENC =        18.65691695
  Ewald energy   TEWEN  =      6221.61188061
  -Hartree energ DENC   =     -8414.66865227
  -exchange      EXHF   =         0.00000000
  -V(xc)+E(xc)   XCENC  =        23.53663040
  PAW double counting   =      1115.37422630    -1025.04084166
  entropy T*S    EENTRO =         0.00000000
  eigenvalues    EBANDS =      -491.20319887
  atomic energy  EATOM  =      2503.28425743
  Solvation  Ediel_sol  =         0.00000000
  ---------------------------------------------------
  free energy    TOTEN  =       -48.44878111 eV

  energy without entropy =      -48.44878111  energy(sigma->0) =      -48.44878111


--------------------------------------------------------------------------------------------------------




--------------------------------------- Iteration      1(  21)  ---------------------------------------


    POTLOK:  cpu time   50.6880: real time   50.9905
    SETDIJ:  cpu time    0.0400: real time    0.0400
     EDDAV:  cpu time   21.4240: real time   21.7645
 BZINTS: Fermi energy: -4.306384; 57.000000 electrons
         Band energy:-491.417255;  BLOECHL correction:  0.000000
       DOS:  cpu time    0.0000: real time    0.0033
    CHARGE:  cpu time    1.8840: real time    1.8898
    MIXING:  cpu time    0.0520: real time    0.0532
    --------------------------------------------
      LOOP:  cpu time   74.0880: real time   74.7414

 eigenvalue-minimisations  :   928
 total energy-change (2. order) :-0.4251113E-02  (-0.2485078E-04)
 number of electron      56.9999994 magnetization       6.9168942
 augmentation part       -0.5047780 magnetization       4.5676885

 Broyden mixing:
  rms(total) = 0.51702E-01    rms(broyden)= 0.51702E-01
  rms(prec ) = 0.53458E-01
  weight for this iteration     100.00

 eigenvalues of (default mixing * dielectric matrix)
  average eigenvalue GAMMA=   1.4385
  9.2001  2.9167  2.2288  1.1578  1.1578  0.0446  0.0183  0.2658  0.9427  0.9427
  0.9053  0.8282  0.8282  0.3284  0.6249  0.6249

 Free energy of the ion-electron system (eV)
  ---------------------------------------------------
  alpha Z        PSCENC =        18.65691695
  Ewald energy   TEWEN  =      6221.61188061
  -Hartree energ DENC   =     -8414.47304179
  -exchange      EXHF   =         0.00000000
  -V(xc)+E(xc)   XCENC  =        23.54748059
  PAW double counting   =      1115.49767069    -1025.16094150
  entropy T*S    EENTRO =         0.00000000
  eigenvalues    EBANDS =      -491.41725520
  atomic energy  EATOM  =      2503.28425743
  Solvation  Ediel_sol  =         0.00000000
  ---------------------------------------------------
  free energy    TOTEN  =       -48.45303222 eV

  energy without entropy =      -48.45303222  energy(sigma->0) =      -48.45303222


--------------------------------------------------------------------------------------------------------




--------------------------------------- Iteration      1(  22)  ---------------------------------------


    POTLOK:  cpu time   51.2320: real time   51.6416
    SETDIJ:  cpu time    0.0400: real time    0.0403
     EDDAV:  cpu time   21.2280: real time   21.4209
 BZINTS: Fermi energy: -4.311090; 57.000000 electrons
         Band energy:-491.512319;  BLOECHL correction:  0.000000
       DOS:  cpu time    0.0040: real time    0.0034
    CHARGE:  cpu time    1.9400: real time    1.9439
    MIXING:  cpu time    0.0560: real time    0.0567
    --------------------------------------------
      LOOP:  cpu time   74.5000: real time   75.1068

 eigenvalue-minimisations  :   880
 total energy-change (2. order) :-0.3495086E-02  (-0.7676402E-05)
 number of electron      56.9999994 magnetization       6.9219301
 augmentation part       -0.5035652 magnetization       4.5740096

 Broyden mixing:
  rms(total) = 0.48618E-01    rms(broyden)= 0.48618E-01
  rms(prec ) = 0.50345E-01
  weight for this iteration     100.00

 eigenvalues of (default mixing * dielectric matrix)
  average eigenvalue GAMMA=   1.4698
  9.1923  3.4114  2.3273  1.4157  1.2076  1.2076  0.9556  0.9556  0.8799  0.8799
  0.0183  0.0446  0.2658  0.3284  0.6676  0.6348  0.5939

 Free energy of the ion-electron system (eV)
  ---------------------------------------------------
  alpha Z        PSCENC =        18.65691695
  Ewald energy   TEWEN  =      6221.61188061
  -Hartree energ DENC   =     -8414.38236333
  -exchange      EXHF   =         0.00000000
  -V(xc)+E(xc)   XCENC  =        23.55224648
  PAW double counting   =      1115.60621871    -1025.27336539
  entropy T*S    EENTRO =         0.00000000
  eigenvalues    EBANDS =      -491.51231876
  atomic energy  EATOM  =      2503.28425743
  Solvation  Ediel_sol  =         0.00000000
  ---------------------------------------------------
  free energy    TOTEN  =       -48.45652731 eV

  energy without entropy =      -48.45652731  energy(sigma->0) =      -48.45652731


[...]
     34      -0.1395      0.00000
     35       0.1174      0.00000
     36       0.3309      0.00000
     37       0.9422      0.00000
     38       0.9670      0.00000
     39       1.3970      0.00000
     40       1.9505      0.00000
     41       2.4443      0.00000
     42       2.5471      0.00000
     43       2.7225      0.00000
     44       2.9701      0.00000
     45       3.3336      0.00000
     46       3.6505      0.00000
     47       4.0396      0.00000
     48       4.1025      0.00000

 k-point     5 :      -0.4000    0.2000    0.0000
  band No.  band energies     occupation 
      1     -17.5255      1.00000
      2     -16.2235      1.00000
      3     -16.0868      1.00000
      4     -15.9095      1.00000
      5     -15.4971      1.00000
      6     -15.3475      1.00000
      7     -12.1261      1.00000
      8      -9.8648      1.00000
      9      -8.4575      1.00000
     10      -8.0012      1.00000
     11      -7.7943      1.00000
     12      -7.3032      1.00000
     13      -7.0191      1.00000
     14      -6.4565      1.00000
     15      -6.0903      1.00000
     16      -6.0425      1.00000
     17      -5.8888      1.00000
     18      -5.5356      1.00000
     19      -5.4549      1.00000
     20      -5.2667      1.00000
     21      -5.0518      1.00000
     22      -4.5938      1.00000
     23      -4.3857      1.00000
     24      -4.2458      1.00000
     25      -4.0890      1.00000
     26      -2.6819      1.00000
     27      -1.6490      0.00000
     28      -1.5057      0.00000
     29      -0.9635      0.00000
     30      -0.6784      0.00000
     31      -0.5420      0.00000
     32      -0.5323      0.00000
     33      -0.3245      0.00000
     34      -0.1743      0.00000
     35       0.2481      0.00000
     36       0.2670      0.00000
     37       0.5776      0.00000
     38       1.0622      0.00000
     39       1.3712      0.00000
     40       2.0393      0.00000
     41       2.2404      0.00000
     42       2.3732      0.00000
     43       3.2011      0.00000
     44       3.4299      0.00000
     45       3.5582      0.00000
     46       3.6470      0.00000
     47       3.7878      0.00000
     48       4.1021      0.00000


--------------------------------------------------------------------------------------------------------


 soft charge-density along one line, spin component           1
         0         1         2         3         4         5         6         7         8         9
 total charge-density along one line

 soft charge-density along one line, spin component           2
         0         1         2         3         4         5         6         7         8         9
 total charge-density along one line

 pseudopotential strength for first ion, spin component:           1
 -8.731   0.083  -0.000   0.009  -0.000   0.669  -0.022   0.000
  0.083  -8.657   0.000   0.000   0.009  -0.022   0.649  -0.000
 -0.000   0.000  -8.843   0.000   0.000   0.000  -0.000   0.699
  0.009   0.000   0.000  -8.657  -0.083  -0.002  -0.000  -0.000
 -0.000   0.009   0.000  -0.083  -8.731   0.000  -0.002  -0.000
  0.669  -0.022   0.000  -0.002   0.000   0.367   0.005  -0.000
 -0.022   0.649  -0.000  -0.000  -0.002   0.005   0.372   0.000
  0.000  -0.000   0.699  -0.000  -0.000  -0.000   0.000   0.359
 -0.002  -0.000  -0.000   0.649   0.022   0.001   0.000   0.000
  0.000  -0.002  -0.000   0.022   0.669  -0.000   0.001   0.000
 -0.000  -0.000   0.003  -0.000   0.000   0.000   0.000  -0.001
  0.000   0.000  -0.001   0.000  -0.000  -0.000  -0.000   0.000
  0.000   0.005   0.000  -0.000   0.001   0.000  -0.001  -0.000
 -0.000  -0.000   0.005  -0.000  -0.000   0.000   0.000  -0.001
  0.001  -0.000   0.000   0.005  -0.000  -0.000   0.000  -0.000
 -0.000  -0.003  -0.000   0.000  -0.001   0.000   0.001   0.000
  0.000   0.000  -0.003   0.000   0.000  -0.000  -0.000   0.001
 -0.001   0.000  -0.000  -0.003   0.000   0.000  -0.000   0.000
 pseudopotential strength for first ion, spin component:           2
 -7.219  -0.168  -0.000  -0.012  -0.000   0.242   0.044   0.000
 -0.168  -7.424   0.000   0.000  -0.012   0.044   0.296  -0.000
 -0.000   0.000  -7.092   0.000   0.000   0.000  -0.000   0.209
 -0.012   0.000   0.000  -7.424   0.168   0.003  -0.000  -0.000
 -0.000  -0.012   0.000   0.168  -7.219   0.000   0.003  -0.000
  0.242   0.044   0.000   0.003   0.000   0.484  -0.011  -0.000
  0.044   0.296  -0.000  -0.000   0.003  -0.011   0.470   0.000
  0.000  -0.000   0.209  -0.000  -0.000  -0.000   0.000   0.492
  0.003  -0.000  -0.000   0.296  -0.044  -0.001   0.000   0.000
  0.000   0.003  -0.000  -0.044   0.242  -0.000  -0.001   0.000
 -0.000  -0.000   0.007  -0.000   0.000  -0.000   0.000  -0.002
  0.000   0.000  -0.001   0.000  -0.000  -0.000  -0.000   0.000
  0.000   0.005   0.000  -0.000   0.001   0.000  -0.001  -0.000
 -0.000  -0.000   0.006  -0.000   0.000   0.000   0.000  -0.001
  0.001  -0.000   0.000   0.005  -0.000  -0.000   0.000  -0.000
 -0.000  -0.003  -0.000   0.000  -0.001  -0.000   0.001   0.000
  0.000   0.000  -0.003   0.000  -0.000  -0.000  -0.000   0.001
 -0.001   0.000  -0.000  -0.003   0.000   0.000  -0.000   0.000
 total augmentation occupancy for first ion, spin component:           1
  1.010  -0.115   0.000   0.015  -0.000   0.080   0.252  -0.000   0.011   0.000  -0.000  -0.000  -0.002   0.000   0.007  -0.000
 -0.115   0.925  -0.000  -0.000   0.015   0.249   0.333   0.000   0.000   0.011  -0.000   0.000   0.009   0.000  -0.005   0.001
  0.000  -0.000   1.055  -0.000  -0.000  -0.000   0.000  -0.113   0.000   0.000  -0.008  -0.012  -0.000   0.005   0.000  -0.000
  0.015  -0.000  -0.000   0.925   0.115   0.011  -0.000   0.000   0.333  -0.249  -0.000  -0.000   0.005   0.000   0.009   0.000
 -0.000   0.015  -0.000   0.115   1.010  -0.000   0.011   0.000  -0.252   0.080   0.000   0.000   0.007  -0.000   0.002   0.000
  0.080   0.249  -0.000   0.011  -0.000   0.238   0.122   0.000   0.002  -0.000   0.000  -0.000   0.006   0.000   0.012   0.000
  0.252   0.333   0.000  -0.000   0.011   0.122   0.350   0.000  -0.000   0.002   0.000   0.000   0.012   0.000  -0.003  -0.000
 -0.000   0.000  -0.113   0.000   0.000   0.000   0.000   0.210   0.000  -0.000   0.048  -0.011  -0.000   0.002   0.000   0.000
  0.011   0.000   0.000   0.333  -0.252   0.002  -0.000   0.000   0.350  -0.122   0.000   0.000   0.003   0.000   0.012  -0.000
  0.000   0.011   0.000  -0.249   0.080  -0.000   0.002  -0.000  -0.122   0.238  -0.000   0.000   0.012  -0.000  -0.006  -0.002
 -0.000  -0.000  -0.008  -0.000   0.000   0.000  -0.000   0.048   0.000  -0.000   1.060  -0.212   0.000   0.010  -0.000   0.000
 -0.000  -0.000  -0.012  -0.000   0.000  -0.000   0.000  -0.011   0.000   0.000  -0.212   0.086  -0.000  -0.006   0.000  -0.000
 -0.002   0.009  -0.000   0.005   0.007   0.006   0.012  -0.000   0.003   0.012   0.000  -0.000   0.240   0.000  -0.000  -0.005
  0.000   0.000   0.005   0.000  -0.000   0.000   0.000   0.002   0.000  -0.000   0.010  -0.006   0.000   0.257   0.000   0.000
  0.007  -0.005   0.000   0.009   0.002   0.012  -0.003   0.000   0.012  -0.006   0.000  -0.000  -0.000   0.000   0.240  -0.000
 -0.000   0.001  -0.000   0.000   0.000   0.000  -0.000   0.000  -0.000  -0.002   0.000   0.000  -0.005  -0.000  -0.000   0.000
  0.000   0.000   0.002  -0.000  -0.000  -0.000   0.000  -0.001  -0.000   0.000  -0.000   0.000   0.000  -0.006   0.000  -0.000
  0.000  -0.000  -0.000   0.001   0.000  -0.002   0.000  -0.000  -0.000  -0.000   0.000  -0.000   0.000   0.000  -0.005  -0.000
 total augmentation occupancy for first ion, spin component:           2
  0.653  -0.278   0.000  -0.020  -0.000  -0.178   0.075  -0.000   0.003  -0.002  -0.000  -0.000  -0.001   0.000   0.000  -0.000
 -0.278   0.345  -0.000  -0.000  -0.020   0.075  -0.096   0.000  -0.002   0.001  -0.000   0.000   0.000   0.000   0.005   0.001
  0.000  -0.000   0.890  -0.000  -0.000  -0.000   0.000  -0.257   0.000   0.000  -0.021  -0.003  -0.000   0.005  -0.000  -0.000
 -0.020  -0.000  -0.000   0.345   0.278   0.001   0.002   0.000  -0.096  -0.075  -0.000  -0.000  -0.005  -0.000   0.000   0.000
 -0.000  -0.020  -0.000   0.278   0.653   0.002   0.003   0.000  -0.075  -0.178   0.000   0.000   0.000  -0.000   0.001   0.001
 -0.178   0.075  -0.000   0.001   0.002   0.009  -0.051   0.000  -0.004  -0.000   0.000   0.000   0.002  -0.000  -0.006   0.000
  0.075  -0.096   0.000   0.002   0.003  -0.051  -0.043  -0.000   0.000  -0.004   0.000   0.000  -0.000   0.000   0.002  -0.000
 -0.000   0.000  -0.257   0.000   0.000   0.000  -0.000   0.072  -0.000  -0.000   0.017   0.004   0.000  -0.001  -0.000   0.000
  0.003  -0.002   0.000  -0.096  -0.075  -0.004   0.000  -0.000  -0.043   0.051   0.000   0.000  -0.002   0.000  -0.000  -0.000
 -0.002   0.001   0.000  -0.075  -0.178  -0.000  -0.004  -0.000   0.051   0.009  -0.000  -0.000  -0.006   0.000  -0.002  -0.000
 -0.000   0.000  -0.021  -0.000   0.000   0.000   0.000   0.017   0.000  -0.000   0.134   0.059  -0.000   0.001  -0.000  -0.000
 -0.000   0.000  -0.003  -0.000   0.000   0.000  -0.000   0.004   0.000  -0.000   0.059  -0.023   0.000   0.000  -0.000   0.000
 -0.001   0.000  -0.000  -0.005   0.000   0.002  -0.000   0.000  -0.002  -0.006  -0.000   0.000   0.021   0.000  -0.000   0.002
  0.000   0.000   0.005  -0.000  -0.000  -0.000   0.000  -0.001   0.000   0.000   0.001   0.000   0.000   0.019   0.000   0.000
  0.000   0.005  -0.000   0.000   0.001  -0.006   0.002  -0.000  -0.000  -0.002  -0.000   0.000  -0.000   0.000   0.021   0.000
 -0.000   0.001  -0.000   0.000   0.001   0.000  -0.000   0.000  -0.000  -0.000   0.000  -0.000   0.002  -0.000   0.000  -0.000
  0.000   0.000   0.002  -0.000  -0.000  -0.000   0.000  -0.001  -0.000   0.000   0.000  -0.000   0.000   0.002   0.000   0.000
  0.001  -0.000   0.000   0.001   0.000  -0.000   0.000  -0.000  -0.000  -0.000  -0.000   0.000  -0.000   0.000   0.002   0.000


------------------------ aborting loop because EDIFF is reached ----------------------------------------





 total charge     

# of ion       s       p       d       tot
------------------------------------------
    1        0.352   0.503   4.286   5.141
    2        0.352   0.503   4.290   5.145
    3        0.730   0.886   0.000   1.616
    4        1.049   1.385   0.000   2.434
    5        1.375   2.338   0.000   3.712
    6        1.360   2.328   0.000   3.687
    7        1.371   2.332   0.000   3.703
    8        1.358   2.389   0.000   3.747
    9        1.350   2.392   0.000   3.743
   10        1.355   2.389   0.000   3.744
--------------------------------------------------
tot         10.652  17.446   8.575  36.673



 magnetization (x)

# of ion       s       p       d       tot
------------------------------------------
    1        0.030   0.034   2.697   2.761
    2        0.030   0.034   2.695   2.759
    3        0.003   0.018   0.000   0.021
    4       -0.031  -0.001   0.000  -0.032
    5       -0.004  -0.070   0.000  -0.074
    6       -0.003  -0.061   0.000  -0.064
    7       -0.005  -0.072   0.000  -0.077
    8        0.001  -0.050   0.000  -0.049
    9       -0.001  -0.034   0.000  -0.035
   10       -0.001  -0.044   0.000  -0.045
--------------------------------------------------
tot          0.018  -0.246   5.392   5.164

    CHARGE:  cpu time    1.9440: real time    1.9497
    FORLOC:  cpu time    0.0600: real time    0.0630
    FORNL :  cpu time    6.6320: real time    6.6660
    STRESS:  cpu time   19.7960: real time   19.9177
    FORCOR:  cpu time   52.0960: real time   52.1971
    FORHAR:  cpu time    0.3320: real time    0.3302
    MIXING:  cpu time    0.0400: real time    0.0404
    OFIELD:  cpu time    0.0000: real time    0.0000

  FORCE on cell =-STRESS in cart. coord.  units (eV):
  Direction    XX          YY          ZZ          XY          YZ          ZX
  --------------------------------------------------------------------------------------
  Alpha Z    27.71098    27.71098    27.71098
  Ewald    9915.98878  9915.98585-11650.95134    -0.00111    -0.00047    -0.00085
  Hartree 10251.47122 10251.47149-10081.11684    -0.00001     0.00004     0.00006
  E(xc)    -214.60687  -214.60688  -214.33091     0.00002     0.00000     0.00001
  Local  -21083.11214-21083.11101 20772.99929     0.00068     0.00024     0.00044
  n-local   509.48254   511.36543   517.18586     0.90430     0.75593     0.70100
  augment   -60.00453   -60.00454   -64.54153     0.00002     0.00002     0.00002
  Kinetic   655.93253   648.31465   693.06034    -4.38299    -0.48004    -0.85763
  Fock        0.00000     0.00000     0.00000     0.00000     0.00000     0.00000
  -------------------------------------------------------------------------------------
  Total      -0.00577    -0.00577     0.01586     0.00000     0.00000     0.00000
  in kB      -0.01416    -0.01416     0.03894     0.00000     0.00000     0.00000
  external pressure =        0.00 kB  Pullay stress =        0.00 kB


 VOLUME and BASIS-vectors are now :
 -----------------------------------------------------------------------------
  energy-cutoff  :      520.00
  volume of cell :      652.29
      direct lattice vectors                 reciprocal lattice vectors
     5.923840298  0.000000062  0.000000000     0.168809413 -0.097462153  0.000000000
     2.961919810  5.130196008  0.000000000    -0.000000002  0.194924327 -0.000000000
    -0.000000000  0.000000000 21.463498327    -0.000000000 -0.000000000  0.046590727

  length of vectors
     5.923840298  5.923839975 21.463498327     0.194924317  0.194924327  0.046590727


 FORCES acting on ions
    electron-ion (+dipol)            ewald-force                    non-local-force                 convergence-correction
 -----------------------------------------------------------------------------------------------
   -.187E-03 -.962E-04 0.112E+02   0.432E-03 0.252E-03 -.116E+02   -.936E-20 0.138E-19 0.285E+00   0.971E-07 0.583E-07 0.840E-02
   0.172E-03 0.117E-03 0.102E+02   -.428E-03 -.250E-03 -.105E+02   -.139E-16 0.139E-16 0.267E+00   0.939E-07 0.526E-07 0.853E-02
   -.277E-04 -.329E-04 0.228E+03   -.212E-03 -.119E-03 -.225E+03   0.209E-16 0.137E-16 -.383E+01   -.308E-07 -.192E-07 0.685E-02
   0.383E-04 0.222E-04 -.287E+03   0.275E-03 0.154E-03 0.283E+03   0.207E-16 0.210E-18 0.434E+01   0.466E-07 0.242E-07 0.938E-02
   0.130E+02 -.754E-01 -.469E+03   -.173E+02 0.541E-01 0.472E+03   0.433E+01 -.741E-02 -.367E+01   -.602E-02 0.264E-01 0.184E-01
   -.656E+01 -.112E+02 -.469E+03   0.869E+01 0.149E+02 0.472E+03   -.217E+01 -.375E+01 -.367E+01   0.259E-01 -.798E-02 0.184E-01
   -.644E+01 0.113E+02 -.469E+03   0.860E+01 -.150E+02 0.472E+03   -.216E+01 0.375E+01 -.367E+01   -.198E-01 -.184E-01 0.184E-01
   -.749E+01 -.412E-01 0.481E+03   0.102E+02 0.117E-01 -.485E+03   -.281E+01 0.796E-02 0.345E+01   0.963E-02 0.251E-01 0.478E-02
   0.371E+01 0.651E+01 0.481E+03   -.511E+01 -.888E+01 -.485E+03   0.141E+01 0.243E+01 0.345E+01   0.169E-01 -.209E-01 0.478E-02
   0.378E+01 -.646E+01 0.481E+03   -.513E+01 0.887E+01 -.485E+03   0.140E+01 -.243E+01 0.345E+01   -.265E-01 -.420E-02 0.478E-02
 -----------------------------------------------------------------------------------------------
   0.187E-04 0.336E-04 -.507E+00   0.213E-13 -.355E-14 0.000E+00   0.666E-15 0.000E+00 0.396E+00   0.269E-06 0.167E-06 0.103E+00


 POSITION                                       TOTAL-FORCE (eV/Angst)
 -----------------------------------------------------------------------------------
      2.96192      1.71006     10.73014         0.000000     -0.000000     -0.063505
      5.92384      3.42013     10.73336         0.000000     -0.000000     -0.077705
      0.00000      0.00000      9.65382         0.000000     -0.000000      0.038862
      0.00000      0.00000     11.86895        -0.000000     -0.000000      0.090055
      3.78653      0.00068     12.23140         0.034140     -0.001520     -0.016303
      1.06925      1.85063     12.23140        -0.018386     -0.028806     -0.016303
      4.02999      3.27889     12.23140        -0.015753      0.030326     -0.016303
      5.05550      5.12911      9.20405        -0.040416      0.002601      0.020401
      7.83802      3.31764      9.20405         0.022461      0.033701      0.020401
      4.87799      1.81364      9.20405         0.017956     -0.036302      0.020401
 -----------------------------------------------------------------------------------
    total drift:                                0.000019      0.000034     -0.008150


--------------------------------------------------------------------------------------------------------



  FREE ENERGIE OF THE ION-ELECTRON SYSTEM (eV)
  ---------------------------------------------------
  free  energy   TOTEN  =       -56.11516458 eV

  energy  without entropy=      -56.11516458  energy(sigma->0) =      -56.11516458

 d Force = 0.3393602E-04[-0.262E-04, 0.940E-04]  d Energy = 0.3009611E-03-0.267E-03
 d Force = 0.2128043E+01[ 0.213E+01, 0.213E+01]  d Ewald  =-0.1608333E+01 0.374E+01


--------------------------------------------------------------------------------------------------------


    POTLOK:  cpu time   51.9160: real time   52.3620


--------------------------------------------------------------------------------------------------------




--------------------------------------------------------------------------------------------------------


  
 reached required accuracy - stopping structural energy minimisation
     LOOP+:  cpu time  359.4400: real time  361.7352
    4ORBIT:  cpu time    0.0000: real time    0.0000



 total charge     

# of ion       s       p       d       tot
------------------------------------------
    1        0.352   0.503   4.286   5.141
    2        0.352   0.503   4.290   5.145
    3        0.730   0.886   0.000   1.616
    4        1.049   1.385   0.000   2.434
    5        1.375   2.338   0.000   3.712
    6        1.360   2.328   0.000   3.687
    7        1.371   2.332   0.000   3.703
    8        1.358   2.389   0.000   3.747
    9        1.350   2.392   0.000   3.743
   10        1.355   2.389   0.000   3.744
--------------------------------------------------
tot         10.652  17.446   8.575  36.673



 magnetization (x)

# of ion       s       p       d       tot
------------------------------------------
    1        0.030   0.034   2.697   2.761
    2        0.030   0.034   2.695   2.759
    3        0.003   0.018   0.000   0.021
    4       -0.031  -0.001   0.000  -0.032
    5       -0.004  -0.070   0.000  -0.074
    6       -0.003  -0.061   0.000  -0.064
    7       -0.005  -0.072   0.000  -0.077
    8        0.001  -0.050   0.000  -0.049
    9       -0.001  -0.034   0.000  -0.035
   10       -0.001  -0.044   0.000  -0.045
--------------------------------------------------
tot          0.018  -0.246   5.392   5.164

 BZINTS: Fermi energy: -1.792973; 57.000000 electrons
         Band energy:-466.719436;  BLOECHL correction: -0.030292

 total amount of memory used by VASP MPI-rank0   131052. kBytes
=======================================================================

   base      :      30000. kBytes
   nonlr-proj:       8567. kBytes
   fftplans  :      11247. kBytes
   grid      :      68332. kBytes
   one-center:        311. kBytes
   wavefun   :      12595. kBytes

  
  
 General timing and accounting informations for this job:
 ========================================================
  
                  Total CPU time used (sec):     8949.788
                            User time (sec):     8743.328
                          System time (sec):      206.460
                         Elapsed time (sec):     9001.872
  
                   Maximum memory used (kb):      382156.
                   Average memory used (kb):           0.
  
                          Minor page faults:      8600961
                          Major page faults:            7
                 Voluntary context switches:         1048
