PROCAR lm decomposed
# of k-points:    5         # of bands:   48         # of ions:   10

 k-point     1 :    0.00000000 0.00000000 0.00000000     weight = 0.04000000

band     1 # energy  -17.95889731 # occ.  1.00000000

ion      s     py     pz     px    dxy    dyz    dz2    dxz  x2-y2    tot
    1  0.014  0.000  0.001  0.000  0.000  0.000  0.000  0.000  0.000  0.015
    2  0.014  0.000  0.001  0.000  0.000  0.000  0.000  0.000  0.000  0.015
    3  0.029  0.000  0.001  0.000  0.000  0.000  0.000  0.000  0.000  0.030
    4  0.158  0.000  0.000  0.000  0.000  0.000  0.000  0.000  0.000  0.158
    5  0.103  0.000  0.001  0.003  0.000  0.000  0.000  0.000  0.000  0.108
    6  0.103  0.003  0.001  0.001  0.000  0.000  0.000  0.000  0.000  0.108
    7  0.103  0.003  0.001  0.001  0.000  0.000  0.000  0.000  0.000  0.108
    8  0.024  0.000  0.001  0.001  0.000  0.000  0.000  0.000  0.000  0.026
    9  0.024  0.000  0.001  0.000  0.000  0.000  0.000  0.000  0.000  0.026
   10  0.024  0.000  0.001  0.000  0.000  0.000  0.000  0.000  0.000  0.026
tot    0.598  0.006  0.008  0.006  0.000  0.000  0.000  0.000  0.000  0.618

band     2 # energy  -16.50401624 # occ.  1.00000000

ion      s     py     pz     px    dxy    dyz    dz2    dxz  x2-y2    tot
    1  0.003  0.000  0.008  0.000  0.000  0.000  0.000  0.000  0.000  0.011
    2  0.003  0.000  0.008  0.000  0.000  0.000  0.000  0.000  0.000  0.011
    3  0.063  0.000  0.002  0.000  0.000  0.000  0.000  0.000  0.000  0.065
    4  0.025  0.000  0.002  0.000  0.000  0.000  0.000  0.000  0.000  0.027
    5  0.032  0.000  0.000  0.001  0.000  0.000  0.000  0.000  0.000  0.033
    6  0.032  0.001  0.000  0.000  0.000  0.000  0.000  0.000  0.000  0.033
    7  0.032  0.001  0.000  0.000  0.000  0.000  0.000  0.000  0.000  0.033
    8  0.145  0.000  0.001  0.002  0.000  0.000  0.000  0.000  0.000  0.148
    9  0.145  0.002  0.001  0.001  0.000  0.000  0.000  0.000  0.000  0.148
   10  0.145  0.002  0.001  0.001  0.000  0.000  0.000  0.000  0.000  0.148
tot    0.625  0.005  0.022  0.005  0.000  0.000  0.000  0.000  0.000  0.656

band     3 # energy  -15.45147329 # occ.  1.00000000

ion      s     py     pz     px    dxy    dyz    dz2    dxz  x2-y2    tot
    1  0.000  0.003  0.000  0.002  0.003  0.006  0.000  0.001  0.001  0.016
    2  0.000  0.004  0.000  0.002  0.003  0.006  0.000  0.001  0.001  0.016
    3  0.000  0.000  0.000  0.002  0.000  0.000  0.000  0.000  0.000  0.002
    4  0.000  0.000  0.000  0.033  0.000  0.000  0.000  0.000  0.000  0.034
    5  0.413  0.000  0.002  0.005  0.000  0.000  0.000  0.000  0.000  0.420
    6  0.119  0.001  0.001  0.000  0.000  0.000  0.000  0.000  0.000  0.121
    7  0.089  0.001  0.000  0.000  0.000  0.000  0.000  0.000  0.000  0.090
    8  0.011  0.000  0.000  0.000  0.000  0.000  0.000  0.000  0.000  0.012
    9  0.003  0.000  0.000  0.000  0.000  0.000  0.000  0.000  0.000  0.003
   10  0.002  0.000  0.000  0.000  0.000  0.000  0.000  0.000  0.000  0.002
tot    0.637  0.009  0.004  0.044  0.006  0.012  0.000  0.002  0.001  0.715

band     4 # energy  -15.45142918 # occ.  1.00000000

ion      s     py     pz     px    dxy    dyz    dz2    dxz  x2-y2    tot
    1  0.000  0.002  0.000  0.003  0.001  0.001  0.000  0.006  0.003  0.016
    2  0.000  0.002  0.000  0.004  0.001  0.001  0.000  0.006  0.003  0.016
    3  0.000  0.002  0.000  0.000  0.000  0.000  0.000  0.000  0.000  0.002
    4  0.000  0.033  0.000  0.000  0.000  0.000  0.000  0.000  0.000  0.034
    5  0.001  0.000  0.000  0.000  0.000  0.000  0.000  0.000  0.000  0.001
    6  0.295  0.002  0.002  0.001  0.000  0.000  0.000  0.000  0.000  0.300
    7  0.325  0.003  0.002  0.001  0.000  0.000  0.000  0.000  0.000  0.330
    8  0.000  0.000  0.000  0.000  0.000  0.000  0.000  0.000  0.000  0.000
    9  0.008  0.000  0.000  0.000  0.000  0.000  0.000  0.000  0.000  0.008
   10  0.009  0.000  0.000  0.000  0.000  0.000  0.000  0.000  0.000  0.009
tot    0.637  0.044  0.004  0.009  0.001  0.002  0.000  0.012  0.006  0.715

band     5 # energy  -15.05076399 # occ.  1.00000000

ion      s     py     pz     px    dxy    dyz    dz2    dxz  x2-y2    tot
    1  0.000  0.007  0.000  0.000  0.002  0.003  0.000  0.001  0.001  0.014
    2  0.000  0.006  0.000  0.001  0.001  0.002  0.000  0.002  0.002  0.014
    3  0.000  0.000  0.000  0.025  0.000  0.000  0.000  0.000  0.000  0.025
    4  0.000  0.000  0.000  0.000  0.000  0.000  0.000  0.000  0.000  0.000
    5  0.014  0.000  0.000  0.000  0.000  0.000  0.000  0.000  0.000  0.014
    6  0.005  0.000  0.000  0.000  0.000  0.000  0.000  0.000  0.000  0.005
    7  0.002  0.000  0.000  0.000  0.000  0.000  0.000  0.000  0.000  0.002
    8  0.420  0.000  0.002  0.003  0.000  0.000  0.000  0.000  0.000  0.426
    9  0.149  0.001  0.001  0.000  0.000  0.000  0.000  0.000  0.000  0.151
   10  0.069  0.000  0.000  0.000  0.000  0.000  0.000  0.000  0.000  0.070
tot    0.658  0.014  0.004  0.031  0.003  0.005  0.000  0.004  0.003  0.721

band     6 # energy  -15.05072756 # occ.  1.00000000

ion      s     py     pz     px    dxy    dyz    dz2    dxz  x2-y2    tot
    1  0.000  0.000  0.000  0.007  0.001  0.001  0.000  0.003  0.002  0.014
    2  0.000  0.001  0.000  0.006  0.002  0.002  0.000  0.002  0.001  0.014
    3  0.000  0.025  0.000  0.000  0.000  0.000  0.000  0.000  0.000  0.025
    4  0.000  0.000  0.000  0.000  0.000  0.000  0.000  0.000  0.000  0.000
    5  0.000  0.000  0.000  0.000  0.000  0.000  0.000  0.000  0.000  0.000
    6  0.009  0.000  0.000  0.000  0.000  0.000  0.000  0.000  0.000  0.009
    7  0.012  0.000  0.000  0.000  0.000  0.000  0.000  0.000  0.000  0.012
    8  0.005  0.000  0.000  0.000  0.000  0.000  0.000  0.000  0.000  0.005
    9  0.276  0.002  0.002  0.001  0.000  0.000  0.000  0.000  0.000  0.280
   10  0.356  0.002  0.002  0.001  0.000  0.000  0.000  0.000  0.000  0.361
tot    0.658  0.031  0.004  0.014  0.003  0.004  0.000  0.005  0.003  0.721

band     7 # energy  -12.75584424 # occ.  1.00000000

ion      s     py     pz     px    dxy    dyz    dz2    dxz  x2-y2    tot
    1  0.019  0.000  0.002  0.000  0.000  0.000  0.001  0.000  0.000  0.022
    2  0.019  0.000  0.002  0.000  0.000  0.000  0.001  0.000  0.000  0.022
    3  0.044  0.000  0.012  0.000  0.000  0.000  0.000  0.000  0.000  0.056
    4  0.251  0.000  0.008  0.000  0.000  0.000  0.000  0.000  0.000  0.259
    5  0.063  0.000  0.000  0.021  0.000  0.000  0.000  0.000  0.000  0.084
    6  0.063  0.016  0.000  0.005  0.000  0.000  0.000  0.000  0.000  0.084
    7  0.063  0.016  0.000  0.005  0.000  0.000  0.000  0.000  0.000  0.084
    8  0.007  0.000  0.000  0.003  0.000  0.000  0.000  0.000  0.000  0.011
    9  0.007  0.003  0.000  0.001  0.000  0.000  0.000  0.000  0.000  0.011
   10  0.007  0.003  0.000  0.001  0.000  0.000  0.000  0.000  0.000  0.011
tot    0.541  0.036  0.025  0.036  0.000  0.000  0.002  0.000  0.000  0.641

band     8 # energy   -9.82044725 # occ.  1.00000000

ion      s     py     pz     px    dxy    dyz    dz2    dxz  x2-y2    tot
    1  0.000  0.000  0.012  0.000  0.000  0.000  0.001  0.000  0.000  0.014
    2  0.000  0.000  0.012  0.000  0.000  0.000  0.001  0.000  0.000  0.014
    3  0.206  0.000  0.000  0.000  0.000  0.000  0.000  0.000  0.000  0.206
    4  0.048  0.000  0.036  0.000  0.000  0.000  0.000  0.000  0.000  0.084
    5  0.005  0.000  0.001  0.014  0.000  0.000  0.000  0.000  0.000  0.020
    6  0.005  0.011  0.001  0.004  0.000  0.000  0.000  0.000  0.000  0.020
    7  0.005  0.011  0.001  0.004  0.000  0.000  0.000  0.000  0.000  0.020
    8  0.026  0.000  0.001  0.046  0.000  0.000  0.000  0.000  0.000  0.073
    9  0.026  0.035  0.001  0.012  0.000  0.000  0.000  0.000  0.000  0.073
   10  0.026  0.035  0.001  0.011  0.000  0.000  0.000  0.000  0.000  0.073
tot    0.348  0.091  0.067  0.091  0.000  0.000  0.003  0.000  0.000  0.599

band     9 # energy   -8.71453673 # occ.  1.00000000

ion      s     py     pz     px    dxy    dyz    dz2    dxz  x2-y2    tot
    1  0.000  0.007  0.000  0.000  0.003  0.022  0.000  0.014  0.000  0.046
    2  0.000  0.000  0.000  0.007  0.000  0.009  0.000  0.026  0.003  0.046
    3  0.000  0.005  0.000  0.004  0.000  0.000  0.000  0.000  0.000  0.009
    4  0.000  0.063  0.000  0.050  0.000  0.000  0.000  0.000  0.000  0.113
    5  0.008  0.020  0.000  0.060  0.000  0.000  0.000  0.000  0.000  0.088
    6  0.018  0.111  0.000  0.022  0.000  0.000  0.000  0.000  0.000  0.151
    7  0.002  0.000  0.000  0.045  0.000  0.000  0.000  0.000  0.000  0.047
    8  0.002  0.002  0.002  0.004  0.000  0.000  0.000  0.000  0.000  0.010
    9  0.005  0.008  0.004  0.001  0.000  0.000  0.000  0.000  0.000  0.018
   10  0.001  0.000  0.000  0.004  0.000  0.000  0.000  0.000  0.000  0.005
tot    0.037  0.216  0.006  0.198  0.004  0.031  0.000  0.040  0.003  0.535

band    10 # energy   -8.71451315 # occ.  1.00000000

ion      s     py     pz     px    dxy    dyz    dz2    dxz  x2-y2    tot
    1  0.000  0.000  0.000  0.007  0.000  0.014  0.000  0.022  0.003  0.046
    2  0.000  0.007  0.000  0.000  0.003  0.026  0.000  0.009  0.000  0.046
    3  0.000  0.004  0.000  0.005  0.000  0.000  0.000  0.000  0.000  0.009
    4  0.000  0.050  0.000  0.063  0.000  0.000  0.000  0.000  0.000  0.113
    5  0.011  0.015  0.000  0.077  0.000  0.000  0.000  0.000  0.000  0.103
    6  0.001  0.001  0.000  0.038  0.000  0.000  0.000  0.000  0.000  0.040
    7  0.017  0.111  0.000  0.015  0.000  0.000  0.000  0.000  0.000  0.144
    8  0.003  0.002  0.002  0.005  0.000  0.000  0.000  0.000  0.000  0.012
    9  0.000  0.000  0.000  0.004  0.000  0.000  0.000  0.000  0.000  0.005
   10  0.005  0.008  0.003  0.001  0.000  0.000  0.000  0.000  0.000  0.017
tot    0.037  0.198  0.006  0.216  0.003  0.040  0.000  0.031  0.004  0.535

band    11 # energy   -8.37579257 # occ.  1.00000000

ion      s     py     pz     px    dxy    dyz    dz2    dxz  x2-y2    tot
    1  0.043  0.000  0.000  0.000  0.000  0.000  0.011  0.000  0.000  0.055
    2  0.044  0.000  0.000  0.000  0.000  0.000  0.011  0.000  0.000  0.055
    3  0.011  0.000  0.055  0.000  0.000  0.000  0.000  0.000  0.000  0.066
    4  0.000  0.000  0.067  0.000  0.000  0.000  0.000  0.000  0.000  0.067
    5  0.003  0.000  0.034  0.005  0.000  0.000  0.000  0.000  0.000  0.042
    6  0.003  0.004  0.034  0.001  0.000  0.000  0.000  0.000  0.000  0.042
    7  0.003  0.004  0.034  0.001  0.000  0.000  0.000  0.000  0.000  0.042
    8  0.001  0.000  0.024  0.020  0.000  0.000  0.000  0.000  0.000  0.045
    9  0.001  0.015  0.024  0.005  0.000  0.000  0.000  0.000  0.000  0.045
   10  0.001  0.015  0.024  0.005  0.000  0.000  0.000  0.000  0.000  0.045
tot    0.110  0.038  0.296  0.038  0.000  0.000  0.022  0.000  0.000  0.505

band    12 # energy   -7.83021587 # occ.  1.00000000

ion      s     py     pz     px    dxy    dyz    dz2    dxz  x2-y2    tot
    1  0.000  0.010  0.000  0.011  0.001  0.002  0.000  0.016  0.011  0.051
    2  0.000  0.019  0.000  0.002  0.007  0.018  0.000  0.000  0.004  0.051
    3  0.000  0.021  0.000  0.050  0.000  0.000  0.000  0.000  0.000  0.071
    4  0.000  0.002  0.000  0.006  0.000  0.000  0.000  0.000  0.000  0.008
    5  0.000  0.001  0.007  0.013  0.000  0.000  0.000  0.000  0.000  0.021
    6  0.000  0.014  0.008  0.001  0.000  0.000  0.000  0.000  0.000  0.023
    7  0.000  0.000  0.000  0.003  0.000  0.000  0.000  0.000  0.000  0.003
    8  0.004  0.014  0.001  0.103  0.000  0.000  0.000  0.000  0.000  0.121
    9  0.004  0.119  0.001  0.008  0.000  0.000  0.000  0.000  0.000  0.131
   10  0.000  0.008  0.000  0.039  0.000  0.000  0.000  0.000  0.000  0.047
tot    0.008  0.208  0.016  0.235  0.008  0.020  0.000  0.016  0.015  0.526

band    13 # energy   -7.83019690 # occ.  1.00000000

ion      s     py     pz     px    dxy    dyz    dz2    dxz  x2-y2    tot
    1  0.000  0.011  0.000  0.010  0.011  0.016  0.000  0.002  0.001  0.051
    2  0.000  0.002  0.000  0.019  0.004  0.000  0.000  0.018  0.007  0.051
    3  0.000  0.050  0.000  0.021  0.000  0.000  0.000  0.000  0.000  0.071
    4  0.000  0.006  0.000  0.002  0.000  0.000  0.000  0.000  0.000  0.008
    5  0.000  0.002  0.003  0.006  0.000  0.000  0.000  0.000  0.000  0.011
    6  0.000  0.001  0.002  0.006  0.000  0.000  0.000  0.000  0.000  0.008
    7  0.000  0.014  0.009  0.004  0.000  0.000  0.000  0.000  0.000  0.028
    8  0.002  0.032  0.000  0.044  0.000  0.000  0.000  0.000  0.000  0.078
    9  0.001  0.003  0.000  0.064  0.000  0.000  0.000  0.000  0.000  0.068
   10  0.005  0.114  0.001  0.033  0.000  0.000  0.000  0.000  0.000  0.153
tot    0.008  0.235  0.016  0.208  0.015  0.016  0.000  0.020  0.008  0.526

band    14 # energy   -7.51871060 # occ.  1.00000000

ion      s     py     pz     px    dxy    dyz    dz2    dxz  x2-y2    tot
    1  0.080  0.000  0.002  0.000  0.000  0.000  0.030  0.000  0.000  0.112
    2  0.080  0.000  0.002  0.000  0.000  0.000  0.030  0.000  0.000  0.112
    3  0.000  0.000  0.000  0.000  0.000  0.000  0.000  0.000  0.000  0.000
    4  0.000  0.000  0.000  0.000  0.000  0.000  0.000  0.000  0.000  0.000
    5  0.000  0.080  0.000  0.000  0.000  0.000  0.000  0.000  0.000  0.080
    6  0.000  0.020  0.000  0.060  0.000  0.000  0.000  0.000  0.000  0.080
    7  0.000  0.020  0.000  0.060  0.000  0.000  0.000  0.000  0.000  0.080
    8  0.000  0.039  0.000  0.000  0.000  0.000  0.000  0.000  0.000  0.039
    9  0.000  0.010  0.000  0.029  0.000  0.000  0.000  0.000  0.000  0.039
   10  0.000  0.010  0.000  0.029  0.000  0.000  0.000  0.000  0.000  0.039
tot    0.160  0.179  0.003  0.179  0.000  0.000  0.061  0.000  0.000  0.582

band    15 # energy   -6.19001084 # occ.  1.00000000

ion      s     py     pz     px    dxy    dyz    dz2    dxz  x2-y2    tot
    1  0.002  0.000  0.053  0.000  0.000  0.000  0.001  0.000  0.000  0.056
    2  0.002  0.000  0.053  0.000  0.000  0.000  0.001  0.000  0.000  0.056
    3  0.000  0.000  0.000  0.000  0.000  0.000  0.000  0.000  0.000  0.000
    4  0.000  0.000  0.000  0.000  0.000  0.000  0.000  0.000  0.000  0.000
    5  0.000  0.054  0.000  0.000  0.000  0.000  0.000  0.000  0.000  0.054
    6  0.000  0.013  0.000  0.040  0.000  0.000  0.000  0.000  0.000  0.054
    7  0.000  0.013  0.000  0.040  0.000  0.000  0.000  0.000  0.000  0.054
    8  0.000  0.093  0.000  0.000  0.000  0.000  0.000  0.000  0.000  0.093
    9  0.000  0.023  0.000  0.070  0.000  0.000  0.000  0.000  0.000  0.093
   10  0.000  0.023  0.000  0.070  0.000  0.000  0.000  0.000  0.000  0.093
tot    0.003  0.220  0.106  0.220  0.000  0.000  0.002  0.000  0.000  0.552

band    16 # energy   -5.75485750 # occ.  1.00000000

ion      s     py     pz     px    dxy    dyz    dz2    dxz  x2-y2    tot
    1  0.000  0.001  0.000  0.000  0.007  0.006  0.000  0.091  0.103  0.208
    2  0.000  0.001  0.000  0.001  0.001  0.001  0.000  0.098  0.112  0.212
    3  0.000  0.000  0.000  0.000  0.000  0.000  0.000  0.000  0.000  0.000
    4  0.000  0.000  0.000  0.000  0.000  0.000  0.000  0.000  0.000  0.000
    5  0.002  0.000  0.066  0.011  0.000  0.000  0.000  0.000  0.000  0.080
    6  0.000  0.006  0.012  0.050  0.000  0.000  0.000  0.000  0.000  0.068
    7  0.001  0.003  0.022  0.045  0.000  0.000  0.000  0.000  0.000  0.071
    8  0.000  0.000  0.010  0.003  0.000  0.000  0.000  0.000  0.000  0.014
    9  0.000  0.007  0.002  0.038  0.000  0.000  0.000  0.000  0.000  0.047
   10  0.000  0.005  0.003  0.033  0.000  0.000  0.000  0.000  0.000  0.041
tot    0.004  0.023  0.115  0.180  0.008  0.006  0.000  0.189  0.215  0.741

band    17 # energy   -5.75484333 # occ.  1.00000000

ion      s     py     pz     px    dxy    dyz    dz2    dxz  x2-y2    tot
    1  0.000  0.000  0.000  0.001  0.103  0.091  0.000  0.006  0.007  0.208
    2  0.000  0.001  0.000  0.001  0.112  0.098  0.000  0.001  0.001  0.212
    3  0.000  0.000  0.000  0.000  0.000  0.000  0.000  0.000  0.000  0.000
    4  0.000  0.000  0.000  0.000  0.000  0.000  0.000  0.000  0.000  0.000
    5  0.000  0.065  0.001  0.000  0.000  0.000  0.000  0.000  0.000  0.066
    6  0.002  0.019  0.055  0.002  0.000  0.000  0.000  0.000  0.000  0.078
    7  0.001  0.022  0.044  0.007  0.000  0.000  0.000  0.000  0.000  0.075
    8  0.000  0.054  0.000  0.000  0.000  0.000  0.000  0.000  0.000  0.054
    9  0.000  0.008  0.008  0.004  0.000  0.000  0.000  0.000  0.000  0.021
   10  0.000  0.011  0.007  0.009  0.000  0.000  0.000  0.000  0.000  0.027
tot    0.004  0.180  0.115  0.023  0.215  0.189  0.000  0.006  0.008  0.741

band    18 # energy   -5.58581464 # occ.  1.00000000

ion      s     py     pz     px    dxy    dyz    dz2    dxz  x2-y2    tot
    1  0.000  0.000  0.000  0.002  0.081  0.067  0.000  0.001  0.000  0.151
    2  0.000  0.000  0.000  0.002  0.062  0.050  0.000  0.017  0.017  0.148
    3  0.000  0.000  0.000  0.000  0.000  0.000  0.000  0.000  0.000  0.000
    4  0.000  0.000  0.000  0.001  0.000  0.000  0.000  0.000  0.000  0.001
    5  0.006  0.001  0.094  0.000  0.000  0.000  0.000  0.000  0.000  0.101
    6  0.003  0.004  0.043  0.006  0.000  0.000  0.000  0.000  0.000  0.055
    7  0.001  0.005  0.010  0.011  0.000  0.000  0.000  0.000  0.000  0.026
    8  0.006  0.000  0.102  0.009  0.000  0.000  0.000  0.000  0.000  0.118
    9  0.003  0.003  0.048  0.001  0.000  0.000  0.000  0.000  0.000  0.055
   10  0.001  0.001  0.010  0.000  0.000  0.000  0.000  0.000  0.000  0.012
tot    0.019  0.013  0.307  0.033  0.143  0.117  0.000  0.018  0.017  0.667

band    19 # energy   -5.58579314 # occ.  1.00000000

ion      s     py     pz     px    dxy    dyz    dz2    dxz  x2-y2    tot
    1  0.000  0.002  0.000  0.000  0.000  0.001  0.000  0.067  0.081  0.151
    2  0.000  0.002  0.000  0.000  0.017  0.017  0.000  0.050  0.062  0.148
    3  0.000  0.000  0.000  0.000  0.000  0.000  0.000  0.000  0.000  0.000
    4  0.000  0.001  0.000  0.000  0.000  0.000  0.000  0.000  0.000  0.001
    5  0.000  0.016  0.004  0.000  0.000  0.000  0.000  0.000  0.000  0.020
    6  0.004  0.001  0.055  0.007  0.000  0.000  0.000  0.000  0.000  0.066
    7  0.006  0.000  0.088  0.002  0.000  0.000  0.000  0.000  0.000  0.096
    8  0.000  0.000  0.005  0.000  0.000  0.000  0.000  0.000  0.000  0.005
    9  0.004  0.004  0.059  0.001  0.000  0.000  0.000  0.000  0.000  0.068
   10  0.006  0.007  0.096  0.002  0.000  0.000  0.000  0.000  0.000  0.111
tot    0.019  0.033  0.307  0.013  0.017  0.018  0.000  0.117  0.143  0.667

band    20 # energy   -5.26572883 # occ.  1.00000000

ion      s     py     pz     px    dxy    dyz    dz2    dxz  x2-y2    tot
    1  0.005  0.000  0.001  0.000  0.000  0.000  0.124  0.000  0.000  0.131
    2  0.005  0.000  0.001  0.000  0.000  0.000  0.124  0.000  0.000  0.131
    3  0.001  0.000  0.037  0.000  0.000  0.000  0.000  0.000  0.000  0.038
    4  0.006  0.000  0.117  0.000  0.000  0.000  0.000  0.000  0.000  0.124
    5  0.000  0.000  0.002  0.014  0.000  0.000  0.000  0.000  0.000  0.016
    6  0.000  0.010  0.002  0.003  0.000  0.000  0.000  0.000  0.000  0.016
    7  0.000  0.010  0.002  0.004  0.000  0.000  0.000  0.000  0.000  0.016
    8  0.000  0.000  0.037  0.010  0.000  0.000  0.000  0.000  0.000  0.048
    9  0.000  0.008  0.037  0.003  0.000  0.000  0.000  0.000  0.000  0.048
   10  0.000  0.008  0.037  0.003  0.000  0.000  0.000  0.000  0.000  0.048
tot    0.019  0.037  0.274  0.037  0.000  0.000  0.249  0.000  0.000  0.615

band    21 # energy   -4.90809224 # occ.  1.00000000

ion      s     py     pz     px    dxy    dyz    dz2    dxz  x2-y2    tot
    1  0.000  0.000  0.011  0.000  0.000  0.000  0.015  0.000  0.000  0.026
    2  0.000  0.000  0.011  0.000  0.000  0.000  0.016  0.000  0.000  0.027
    3  0.005  0.000  0.029  0.000  0.000  0.000  0.000  0.000  0.000  0.034
    4  0.000  0.000  0.000  0.000  0.000  0.000  0.000  0.000  0.000  0.000
    5  0.000  0.000  0.082  0.002  0.000  0.000  0.000  0.000  0.000  0.084
    6  0.000  0.001  0.082  0.000  0.000  0.000  0.000  0.000  0.000  0.084
    7  0.000  0.001  0.082  0.000  0.000  0.000  0.000  0.000  0.000  0.084
    8  0.000  0.000  0.058  0.002  0.000  0.000  0.000  0.000  0.000  0.060
    9  0.000  0.001  0.058  0.000  0.000  0.000  0.000  0.000  0.000  0.060
   10  0.000  0.001  0.058  0.000  0.000  0.000  0.000  0.000  0.000  0.060
tot    0.006  0.005  0.471  0.005  0.000  0.000  0.031  0.000  0.000  0.518

band    22 # energy   -4.79265386 # occ.  1.00000000

ion      s     py     pz     px    dxy    dyz    dz2    dxz  x2-y2    tot
    1  0.000  0.019  0.000  0.000  0.003  0.001  0.000  0.013  0.000  0.037
    2  0.000  0.016  0.000  0.003  0.003  0.000  0.000  0.014  0.000  0.037
    3  0.000  0.000  0.000  0.010  0.000  0.000  0.000  0.000  0.000  0.010
    4  0.000  0.001  0.000  0.018  0.000  0.000  0.000  0.000  0.000  0.019
    5  0.007  0.001  0.084  0.030  0.000  0.000  0.000  0.000  0.000  0.122
    6  0.003  0.001  0.038  0.030  0.000  0.000  0.000  0.000  0.000  0.073
    7  0.001  0.001  0.009  0.030  0.000  0.000  0.000  0.000  0.000  0.042
    8  0.007  0.000  0.128  0.020  0.000  0.000  0.000  0.000  0.000  0.155
    9  0.003  0.002  0.058  0.011  0.000  0.000  0.000  0.000  0.000  0.075
   10  0.001  0.000  0.014  0.009  0.000  0.000  0.000  0.000  0.000  0.024
tot    0.022  0.042  0.331  0.162  0.007  0.001  0.000  0.028  0.000  0.594

band    23 # energy   -4.79264034 # occ.  1.00000000

ion      s     py     pz     px    dxy    dyz    dz2    dxz  x2-y2    tot
    1  0.000  0.000  0.000  0.019  0.000  0.013  0.000  0.001  0.003  0.037
    2  0.000  0.003  0.000  0.016  0.000  0.014  0.000  0.000  0.003  0.037
    3  0.000  0.010  0.000  0.000  0.000  0.000  0.000  0.000  0.000  0.010
    4  0.000  0.018  0.000  0.001  0.000  0.000  0.000  0.000  0.000  0.019
    5  0.000  0.031  0.003  0.001  0.000  0.000  0.000  0.000  0.000  0.035
    6  0.004  0.030  0.050  0.001  0.000  0.000  0.000  0.000  0.000  0.085
    7  0.007  0.030  0.078  0.001  0.000  0.000  0.000  0.000  0.000  0.116
    8  0.000  0.008  0.005  0.001  0.000  0.000  0.000  0.000  0.000  0.014
    9  0.004  0.015  0.075  0.000  0.000  0.000  0.000  0.000  0.000  0.094
   10  0.006  0.017  0.120  0.002  0.000  0.000  0.000  0.000  0.000  0.145
tot    0.022  0.162  0.331  0.042  0.000  0.028  0.000  0.001  0.007  0.594

band    24 # energy   -3.86363102 # occ.  1.00000000

ion      s     py     pz     px    dxy    dyz    dz2    dxz  x2-y2    tot
    1  0.000  0.005  0.000  0.009  0.013  0.018  0.000  0.028  0.050  0.122
    2  0.000  0.001  0.000  0.013  0.063  0.047  0.000  0.000  0.001  0.125
    3  0.000  0.003  0.000  0.011  0.000  0.000  0.000  0.000  0.000  0.014
    4  0.000  0.005  0.000  0.017  0.000  0.000  0.000  0.000  0.000  0.022
    5  0.003  0.015  0.002  0.023  0.000  0.000  0.000  0.000  0.000  0.042
    6  0.000  0.015  0.000  0.054  0.000  0.000  0.000  0.000  0.000  0.069
    7  0.003  0.003  0.002  0.038  0.000  0.000  0.000  0.000  0.000  0.045
    8  0.003  0.022  0.003  0.050  0.000  0.000  0.000  0.000  0.000  0.078
    9  0.000  0.022  0.000  0.080  0.000  0.000  0.000  0.000  0.000  0.102
   10  0.003  0.009  0.003  0.065  0.000  0.000  0.000  0.000  0.000  0.080
tot    0.012  0.101  0.009  0.360  0.075  0.066  0.000  0.028  0.051  0.700

band    25 # energy   -3.86360288 # occ.  1.00000000

ion      s     py     pz     px    dxy    dyz    dz2    dxz  x2-y2    tot
    1  0.000  0.009  0.000  0.005  0.050  0.028  0.000  0.018  0.013  0.122
    2  0.000  0.013  0.000  0.001  0.001  0.000  0.000  0.047  0.063  0.125
    3  0.000  0.011  0.000  0.003  0.000  0.000  0.000  0.000  0.000  0.014
    4  0.000  0.017  0.000  0.005  0.000  0.000  0.000  0.000  0.000  0.022
    5  0.001  0.055  0.000  0.006  0.000  0.000  0.000  0.000  0.000  0.062
    6  0.004  0.023  0.002  0.005  0.000  0.000  0.000  0.000  0.000  0.035
    7  0.001  0.036  0.001  0.021  0.000  0.000  0.000  0.000  0.000  0.059
    8  0.001  0.081  0.001  0.013  0.000  0.000  0.000  0.000  0.000  0.096
    9  0.004  0.051  0.004  0.013  0.000  0.000  0.000  0.000  0.000  0.071
   10  0.001  0.064  0.001  0.027  0.000  0.000  0.000  0.000  0.000  0.093
tot    0.012  0.360  0.009  0.101  0.051  0.028  0.000  0.066  0.075  0.700

band    26 # energy   -3.60889574 # occ.  1.00000000

ion      s     py     pz     px    dxy    dyz    dz2    dxz  x2-y2    tot
    1  0.000  0.002  0.000  0.001  0.003  0.004  0.000  0.199  0.190  0.399
    2  0.000  0.002  0.000  0.001  0.001  0.002  0.000  0.202  0.194  0.401
    3  0.000  0.000  0.000  0.010  0.000  0.000  0.000  0.000  0.000  0.010
    4  0.000  0.000  0.000  0.003  0.000  0.000  0.000  0.000  0.000  0.003
    5  0.000  0.000  0.004  0.001  0.000  0.000  0.000  0.000  0.000  0.005
    6  0.000  0.001  0.001  0.007  0.000  0.000  0.000  0.000  0.000  0.009
    7  0.000  0.001  0.001  0.007  0.000  0.000  0.000  0.000  0.000  0.009
    8  0.000  0.000  0.004  0.015  0.000  0.000  0.000  0.000  0.000  0.019
    9  0.000  0.001  0.001  0.005  0.000  0.000  0.000  0.000  0.000  0.007
   10  0.000  0.001  0.001  0.005  0.000  0.000  0.000  0.000  0.000  0.007
tot    0.001  0.007  0.012  0.054  0.004  0.006  0.000  0.401  0.384  0.869

band    27 # energy   -3.60889260 # occ.  1.00000000

ion      s     py     pz     px    dxy    dyz    dz2    dxz  x2-y2    tot
    1  0.000  0.001  0.000  0.002  0.190  0.199  0.000  0.004  0.003  0.399
    2  0.000  0.001  0.000  0.002  0.194  0.202  0.000  0.002  0.001  0.401
    3  0.000  0.010  0.000  0.000  0.000  0.000  0.000  0.000  0.000  0.010
    4  0.000  0.003  0.000  0.000  0.000  0.000  0.000  0.000  0.000  0.003
    5  0.000  0.010  0.000  0.000  0.000  0.000  0.000  0.000  0.000  0.010
    6  0.000  0.002  0.003  0.001  0.000  0.000  0.000  0.000  0.000  0.007
    7  0.000  0.002  0.003  0.001  0.000  0.000  0.000  0.000  0.000  0.006
    8  0.000  0.003  0.000  0.000  0.000  0.000  0.000  0.000  0.000  0.003
    9  0.000  0.011  0.003  0.001  0.000  0.000  0.000  0.000  0.000  0.015
   10  0.000  0.011  0.003  0.001  0.000  0.000  0.000  0.000  0.000  0.015
tot    0.001  0.054  0.012  0.007  0.384  0.401  0.000  0.006  0.004  0.869

band    28 # energy   -3.30563612 # occ.  1.00000000

ion      s     py     pz     px    dxy    dyz    dz2    dxz  x2-y2    tot
    1  0.014  0.000  0.000  0.000  0.000  0.000  0.427  0.000  0.000  0.441
    2  0.013  0.000  0.000  0.000  0.000  0.000  0.443  0.000  0.000  0.456
    3  0.000  0.000  0.000  0.000  0.000  0.000  0.000  0.000  0.000  0.000
    4  0.000  0.000  0.000  0.000  0.000  0.000  0.000  0.000  0.000  0.000
    5  0.000  0.004  0.000  0.000  0.000  0.000  0.000  0.000  0.000  0.004
    6  0.000  0.001  0.000  0.003  0.000  0.000  0.000  0.000  0.000  0.004
    7  0.000  0.001  0.000  0.003  0.000  0.000  0.000  0.000  0.000  0.004
    8  0.000  0.004  0.000  0.000  0.000  0.000  0.000  0.000  0.000  0.004
    9  0.000  0.001  0.000  0.003  0.000  0.000  0.000  0.000  0.000  0.004
   10  0.000  0.001  0.000  0.003  0.000  0.000  0.000  0.000  0.000  0.004
tot    0.027  0.013  0.000  0.013  0.000  0.000  0.869  0.000  0.000  0.922

band    29 # energy   -3.20186321 # occ.  1.00000000

ion      s     py     pz     px    dxy    dyz    dz2    dxz  x2-y2    tot
    1  0.010  0.000  0.000  0.000  0.000  0.000  0.297  0.000  0.000  0.307
    2  0.011  0.000  0.000  0.000  0.000  0.000  0.280  0.000  0.000  0.291
    3  0.001  0.000  0.018  0.000  0.000  0.000  0.000  0.000  0.000  0.019
    4  0.001  0.000  0.035  0.000  0.000  0.000  0.000  0.000  0.000  0.035
    5  0.002  0.000  0.023  0.001  0.000  0.000  0.000  0.000  0.000  0.026
    6  0.002  0.001  0.023  0.000  0.000  0.000  0.000  0.000  0.000  0.026
    7  0.002  0.001  0.023  0.000  0.000  0.000  0.000  0.000  0.000  0.026
    8  0.001  0.000  0.015  0.003  0.000  0.000  0.000  0.000  0.000  0.019
    9  0.001  0.003  0.015  0.001  0.000  0.000  0.000  0.000  0.000  0.019
   10  0.001  0.002  0.015  0.001  0.000  0.000  0.000  0.000  0.000  0.019
tot    0.031  0.007  0.167  0.007  0.000  0.000  0.577  0.000  0.000  0.788

band    30 # energy   -3.16925191 # occ.  1.00000000

ion      s     py     pz     px    dxy    dyz    dz2    dxz  x2-y2    tot
    1  0.000  0.001  0.000  0.005  0.211  0.072  0.000  0.011  0.045  0.345
    2  0.000  0.001  0.000  0.005  0.226  0.069  0.000  0.012  0.027  0.340
    3  0.000  0.000  0.000  0.002  0.000  0.000  0.000  0.000  0.000  0.002
    4  0.000  0.000  0.000  0.003  0.000  0.000  0.000  0.000  0.000  0.003
    5  0.000  0.006  0.008  0.004  0.000  0.000  0.000  0.000  0.000  0.018
    6  0.000  0.000  0.006  0.018  0.000  0.000  0.000  0.000  0.000  0.024
    7  0.000  0.009  0.000  0.032  0.000  0.000  0.000  0.000  0.000  0.041
    8  0.000  0.007  0.009  0.003  0.000  0.000  0.000  0.000  0.000  0.018
    9  0.000  0.001  0.006  0.018  0.000  0.000  0.000  0.000  0.000  0.025
   10  0.000  0.010  0.000  0.035  0.000  0.000  0.000  0.000  0.000  0.045
tot    0.001  0.035  0.029  0.123  0.437  0.141  0.000  0.023  0.073  0.861

band    31 # energy   -3.16924156 # occ.  1.00000000

ion      s     py     pz     px    dxy    dyz    dz2    dxz  x2-y2    tot
    1  0.000  0.005  0.000  0.001  0.045  0.011  0.000  0.072  0.211  0.345
    2  0.000  0.005  0.000  0.001  0.027  0.012  0.000  0.069  0.226  0.340
    3  0.000  0.002  0.000  0.000  0.000  0.000  0.000  0.000  0.000  0.002
    4  0.000  0.003  0.000  0.000  0.000  0.000  0.000  0.000  0.000  0.003
    5  0.000  0.035  0.001  0.001  0.000  0.000  0.000  0.000  0.000  0.037
    6  0.000  0.013  0.003  0.014  0.000  0.000  0.000  0.000  0.000  0.031
    7  0.000  0.005  0.009  0.000  0.000  0.000  0.000  0.000  0.000  0.014
    8  0.000  0.039  0.001  0.000  0.000  0.000  0.000  0.000  0.000  0.041
    9  0.000  0.013  0.004  0.017  0.000  0.000  0.000  0.000  0.000  0.033