<?xml version="1.0" encoding="ISO-8859-1"?>
<modeling>
 <generator>
  <i name="program" type="string">vasp </i>
  <i name="version" type="string">5.4.4.18Apr17-6-g9f103f2a35  </i>
  <i name="subversion" type="string">(build May  1 2020 15:48:39) complex            parallel </i>
  <i name="platform" type="string">LinuxGNU </i>
  <i name="date" type="string">2020 06 20 </i>
  <i name="time" type="string">18:43:15 </i>
 </generator>
 <incar>
  <i type="int" name="ISTART">     1</i>
  <i type="string" name="PREC">accurate</i>
  <i type="string" name="ALGO"> Normal</i>
  <i type="int" name="ISPIN">     2</i>
  <i name="AMIN">      0.01000000</i>
  <i type="int" name="NELM">   400</i>
  <i type="int" name="IBRION">     2</i>
  <i name="EDIFF">      0.00010000</i>
  <i type="int" name="NSW">    99</i>
  <i type="int" name="ISIF">     3</i>
  <i name="ENCUT">    520.00000000</i>
  <v name="MAGMOM">      5.00000000      5.00000000      0.60000000      0.60000000      0.60000000      0.60000000      0.60000000      0.60000000      0.60000000      0.60000000</v>
  <i type="string" name="LREAL"> Auto</i>
  <i type="int" name="ISMEAR">    -5</i>
  <i name="SIGMA">      0.05000000</i>
  <i type="logical" name="LWAVE"> F  </i>
  <i type="int" name="LORBIT">    11</i>
  <v type="int" name="KPOINT_BSE">    -1     0     0     0</v>
  <i type="int" name="NELM">   400</i>
  <i type="string" name="GGA"> Bo</i>
  <i name="PARAM1">      0.18333333</i>
  <i name="PARAM2">      0.22000000</i>
  <i type="logical" name="LUSE_VDW"> T  </i>
  <i name="AGGAC">      0.00000000</i>
 </incar>
 <structure name="primitive_cell" >
  <crystal>
   <varray name="basis" >
    <v>       6.90777700      -0.00000000       0.00000000 </v>
    <v>       3.45388800       5.98231000       0.00000000 </v>
    <v>       0.00000000       0.00000000      23.44458800 </v>
   </varray>
   <i name="volume">    968.83501932 </i>
   <varray name="rec_basis" >
    <v>       0.14476437      -0.08357974       0.00000000 </v>
    <v>       0.00000000       0.16715951      -0.00000000 </v>
    <v>      -0.00000000       0.00000000       0.04265377 </v>
   </varray>
  </crystal>
  <varray name="positions" >
   <v>       0.33333300       0.33333300       0.49992500 </v>
   <v>       0.00042000       0.37322400      -0.42624800 </v>
   <v>      -0.37364300       0.00042000      -0.42624800 </v>
   <v>       0.37322400      -0.37364300      -0.42624800 </v>
   <v>       0.37364300      -0.00042000       0.42624800 </v>
   <v>      -0.37322400       0.37364300       0.42624800 </v>
   <v>      -0.00042000      -0.37322400       0.42624800 </v>
   <v>      -0.33333300      -0.33333300      -0.49992500 </v>
   <v>       0.00000000       0.00000000       0.44821600 </v>
   <v>       0.00000000       0.00000000      -0.44821600 </v>
  </varray>
 </structure>
 <varray name="primitive_index" >
  <v type="int" >        1 </v>
  <v type="int" >        6 </v>
  <v type="int" >        5 </v>
  <v type="int" >        7 </v>
  <v type="int" >        8 </v>
  <v type="int" >       10 </v>
  <v type="int" >        9 </v>
  <v type="int" >        2 </v>
  <v type="int" >        3 </v>
  <v type="int" >        4 </v>
 </varray>
 <kpoints>
  <generation param="Gamma">
   <v type="int" name="divisions">       5        5        1 </v>
   <v name="usershift">      0.00000000       0.00000000       0.00000000 </v>
   <v name="genvec1">      0.20000000       0.00000000       0.00000000 </v>
   <v name="genvec2">      0.00000000       0.20000000       0.00000000 </v>
   <v name="genvec3">      0.00000000       0.00000000       1.00000000 </v>
   <v name="shift">      0.00000000       0.00000000       0.00000000 </v>
  </generation>
  <varray name="kpointlist" >
   <v>       0.00000000       0.00000000       0.00000000 </v>
   <v>       0.20000000       0.00000000       0.00000000 </v>
   <v>       0.40000000       0.00000000       0.00000000 </v>
   <v>       0.40000000       0.20000000       0.00000000 </v>
   <v>      -0.40000000       0.20000000       0.00000000 </v>
  </varray>
  <varray name="weights" >
   <v>       0.04000000 </v>
   <v>       0.24000000 </v>
   <v>       0.24000000 </v>
   <v>       0.24000000 </v>
   <v>       0.24000000 </v>
  </varray>
  <varray name="tetrahedronlist"  type="int" >
   <v type="int" >        6        1        1        2        2 </v>
   <v type="int" >       12        1        2        2        2 </v>
   <v type="int" >       12        2        2        3        4 </v>
   <v type="int" >       12        2        2        2        4 </v>
   <v type="int" >       12        2        3        3        4 </v>
   <v type="int" >       12        2        3        4        4 </v>
   <v type="int" >        6        2        2        4        4 </v>
   <v type="int" >       12        3        3        3        5 </v>
   <v type="int" >       12        3        3        4        5 </v>
   <v type="int" >       12        3        4        4        5 </v>
   <v type="int" >        6        3        3        5        5 </v>
   <v type="int" >       12        3        4        5        5 </v>
   <v type="int" >        6        4        4        5        5 </v>
   <v type="int" >       12        4        5        5        5 </v>
   <v type="int" >        6        5        5        5        5 </v>
  </varray>
  <i name="volumeweight">      0.00666667 </i>
 </kpoints>
 <parameters>
  <separator name="general" >
   <i type="string" name="SYSTEM">unknown system</i>
   <i type="logical" name="LCOMPAT"> F  </i>
  </separator>
  <separator name="electronic" >
   <i type="string" name="PREC">accura</i>
   <i name="ENMAX">    520.00000000</i>
   <i name="ENAUG">    402.10800000</i>
   <i name="EDIFF">      0.00010000</i>
   <i type="int" name="IALGO">    38</i>
   <i type="int" name="IWAVPR">    11</i>
   <i type="int" name="NBANDS">    48</i>
   <i name="NELECT">     57.00000000</i>
   <i type="int" name="TURBO">     0</i>
   <i type="int" name="IRESTART">     0</i>
   <i type="int" name="NREBOOT">     0</i>
   <i type="int" name="NMIN">     0</i>
   <i name="EREF">      0.00000000</i>
   <separator name="electronic smearing" >
    <i type="int" name="ISMEAR">    -5</i>
    <i name="SIGMA">      0.05000000</i>
    <i name="KSPACING">      0.50000000</i>
    <i type="logical" name="KGAMMA"> T  </i>
   </separator>
   <separator name="electronic projectors" >
    <i type="logical" name="LREAL"> T  </i>
    <v name="ROPT">     -0.00025000     -0.00025000     -0.00025000     -0.00025000</v>
    <i type="int" name="LMAXPAW">  -100</i>
    <i type="int" name="LMAXMIX">     2</i>
    <i type="logical" name="NLSPLINE"> F  </i>
   </separator>
   <separator name="electronic startup" >
    <i type="int" name="ISTART">     0</i>
    <i type="int" name="ICHARG">     2</i>
    <i type="int" name="INIWAV">     1</i>
   </separator>
   <separator name="electronic spin" >
    <i type="int" name="ISPIN">     2</i>
    <i type="logical" name="LNONCOLLINEAR"> F  </i>
    <v name="MAGMOM">      5.00000000      5.00000000      0.60000000      0.60000000      0.60000000      0.60000000      0.60000000      0.60000000      0.60000000      0.60000000</v>
    <i name="NUPDOWN">     -1.00000000</i>
    <i type="logical" name="LSORBIT"> F  </i>
    <v name="SAXIS">      0.00000000      0.00000000      1.00000000</v>
    <i type="logical" name="LSPIRAL"> F  </i>
    <v name="QSPIRAL">      0.00000000      0.00000000      0.00000000</v>
    <i type="logical" name="LZEROZ"> F  </i>
   </separator>
   <separator name="electronic exchange-correlation" >
    <i type="logical" name="LASPH"> F  </i>
    <i type="logical" name="LMETAGGA"> F  </i>
   </separator>
   <separator name="electronic convergence" >
    <i type="int" name="NELM">   400</i>
    <i type="int" name="NELMDL">     0</i>
    <i type="int" name="NELMIN">     2</i>
    <i name="ENINI">    520.00000000</i>
    <separator name="electronic convergence detail" >
     <i type="logical" name="LDIAG"> T  </i>
     <i type="logical" name="LSUBROT"> F  </i>
     <i name="WEIMIN">      0.00100000</i>
     <i name="EBREAK">      0.00000052</i>
     <i name="DEPER">      0.30000000</i>
     <i type="int" name="NRMM">     4</i>
     <i name="TIME">      0.40000000</i>
    </separator>
   </separator>
   <separator name="electronic mixer" >
    <i name="AMIX">      0.40000000</i>
    <i name="BMIX">      1.00000000</i>
    <i name="AMIN">      0.01000000</i>
    <i name="AMIX_MAG">      1.60000000</i>
    <i name="BMIX_MAG">      1.00000000</i>
    <separator name="electronic mixer details" >
     <i type="int" name="IMIX">     4</i>
     <i type="logical" name="MIXFIRST"> F  </i>
     <i type="int" name="MAXMIX">   -45</i>
     <i name="WC">    100.00000000</i>
     <i type="int" name="INIMIX">     1</i>
     <i type="int" name="MIXPRE">     1</i>
     <i type="int" name="MREMOVE">     5</i>
    </separator>
   </separator>
   <separator name="electronic dipolcorrection" >
    <i type="logical" name="LDIPOL"> F  </i>
    <i type="logical" name="LMONO"> F  </i>
    <i type="int" name="IDIPOL">     0</i>
    <i name="EPSILON">      1.00000000</i>
    <v name="DIPOL">   -100.00000000   -100.00000000   -100.00000000</v>
    <i name="EFIELD">      0.00000000</i>
   </separator>
  </separator>
  <separator name="grids" >
   <i type="int" name="NGX">    54</i>
   <i type="int" name="NGY">    54</i>
   <i type="int" name="NGZ">   180</i>
   <i type="int" name="NGXF">   108</i>
   <i type="int" name="NGYF">   108</i>
   <i type="int" name="NGZF">   360</i>
   <i type="logical" name="ADDGRID"> F  </i>
  </separator>
  <separator name="ionic" >
   <i type="int" name="NSW">    99</i>
   <i type="int" name="IBRION">     2</i>
   <i type="int" name="MDALGO">     0</i>
   <i type="int" name="ISIF">     3</i>
   <i name="PSTRESS">      0.00000000</i>
   <i name="EDIFFG">      0.00100000</i>
   <i type="int" name="NFREE">     1</i>
   <i name="POTIM">      0.50000000</i>
   <i name="SMASS">     -3.00000000</i>
   <i name="SCALEE">      1.00000000</i>
  </separator>
  <separator name="ionic md" >
   <i name="TEBEG">      0.00010000</i>
   <i name="TEEND">      0.00010000</i>
   <i type="int" name="NBLOCK">     1</i>
   <i type="int" name="KBLOCK">    99</i>
   <i type="int" name="NPACO">   256</i>
   <i name="APACO">     16.00000000</i>
  </separator>
  <separator name="symmetry" >
   <i type="int" name="ISYM">     2</i>
   <i name="SYMPREC">      0.00001000</i>
  </separator>
  <separator name="dos" >
   <i type="int" name="LORBIT">    11</i>
   <v name="RWIGS">     -1.00000000     -1.00000000     -1.00000000     -1.00000000</v>
   <i type="int" name="NEDOS">   301</i>
   <i name="EMIN">     10.00000000</i>
   <i name="EMAX">    -10.00000000</i>
   <i name="EFERMI">      0.00000000</i>
  </separator>
  <separator name="writing" >
   <i type="int" name="NWRITE">     2</i>
   <i type="logical" name="LWAVE"> F  </i>
   <i type="logical" name="LDOWNSAMPLE"> F  </i>
   <i type="logical" name="LCHARG"> T  </i>
   <i type="logical" name="LPARD"> F  </i>
   <i type="logical" name="LVTOT"> F  </i>
   <i type="logical" name="LVHAR"> F  </i>
   <i type="logical" name="LELF"> F  </i>
   <i type="logical" name="LOPTICS"> F  </i>
   <v name="STM">      0.00000000      0.00000000      0.00000000      0.00000000      0.00000000      0.00000000      0.00000000</v>
  </separator>
  <separator name="performance" >
   <i type="int" name="NPAR">    16</i>
   <i type="int" name="NSIM">     4</i>
   <i type="int" name="NBLK">    -1</i>
   <i type="logical" name="LPLANE"> T  </i>
   <i type="logical" name="LSCALAPACK"> T  </i>
   <i type="logical" name="LSCAAWARE"> F  </i>
   <i type="logical" name="LSCALU"> F  </i>
   <i type="logical" name="LASYNC"> F  </i>
   <i type="logical" name="LORBITALREAL"> F  </i>
  </separator>
  <separator name="miscellaneous" >
   <i type="int" name="IDIOT">     3</i>
   <i type="int" name="ISPECIAL">     0</i>
   <i type="logical" name="LMUSIC"> F  </i>
   <v name="POMASS">     51.99600000     28.08500000     30.97400000     32.06600000</v>
   <v name="DARWINR">      0.00000000      0.00000000      0.00000000      0.00000000</v>
   <v name="DARWINV">      1.00000000      1.00000000      1.00000000      1.00000000</v>
   <i type="logical" name="LCORR"> T  </i>
  </separator>
  <i type="logical" name="GGA_COMPAT"> T  </i>
  <i type="logical" name="LBERRY"> F  </i>
  <i type="int" name="ICORELEVEL">     0</i>
  <i type="logical" name="LDAU"> F  </i>
  <i type="int" name="I_CONSTRAINED_M">     0</i>
  <separator name="electronic exchange-correlation" >
   <i type="string" name="GGA">BO</i>
   <i type="int" name="VOSKOWN">     0</i>
   <i type="logical" name="LHFCALC"> F  </i>
   <i type="string" name="PRECFOCK"></i>
   <i type="logical" name="LSYMGRAD"> F  </i>
   <i type="logical" name="LHFONE"> F  </i>
   <i type="logical" name="LRHFCALC"> F  </i>
   <i type="logical" name="LTHOMAS"> F  </i>
   <i type="logical" name="LMODELHF"> F  </i>
   <i name="ENCUT4O">     -1.00000000</i>
   <i type="int" name="EXXOEP">     0</i>
   <i type="int" name="FOURORBIT">     0</i>
   <i name="AEXX">      0.00000000</i>
   <i name="HFALPHA">      0.00000000</i>
   <i name="MCALPHA">      0.00000000</i>
   <i name="ALDAX">      1.00000000</i>
   <i name="AGGAX">      1.00000000</i>
   <i name="ALDAC">      1.00000000</i>
   <i name="AGGAC">      0.00000000</i>
   <i type="int" name="NKREDX">     1</i>
   <i type="int" name="NKREDY">     1</i>
   <i type="int" name="NKREDZ">     1</i>
   <i type="logical" name="SHIFTRED"> F  </i>
   <i type="logical" name="ODDONLY"> F  </i>
   <i type="logical" name="EVENONLY"> F  </i>
   <i type="int" name="LMAXFOCK">     0</i>
   <i type="int" name="NMAXFOCKAE">     0</i>
   <i type="logical" name="LFOCKAEDFT"> F  </i>
   <i name="HFSCREEN">      0.00000000</i>
   <i name="HFSCREENC">      0.00000000</i>
   <i type="int" name="NBANDSGWLOW">     0</i>
  </separator>
  <separator name="vdW DFT" >
   <i type="logical" name="LUSE_VDW"> T  </i>
   <i name="Zab_VDW">     -0.84910000</i>
   <i name="PARAM1">      0.18333333</i>
   <i name="PARAM2">      0.22000000</i>
   <i name="PARAM3">      0.00000000</i>
  </separator>
  <separator name="model GW" >
   <i type="int" name="MODEL_GW">     0</i>
   <i name="MODEL_EPS0">     58.13010116</i>
   <i name="MODEL_ALPHA">      1.00000000</i>
  </separator>
  <separator name="linear response parameters" >
   <i type="logical" name="LEPSILON"> F  </i>
   <i type="logical" name="LRPA"> F  </i>
   <i type="logical" name="LNABLA"> F  </i>
   <i type="logical" name="LVEL"> F  </i>
   <i type="int" name="KINTER">     0</i>
   <i name="CSHIFT">      0.10000000</i>
   <i name="OMEGAMAX">     -1.00000000</i>
   <i name="DEG_THRESHOLD">      0.00200000</i>
   <i name="RTIME">     -0.10000000</i>
   <i name="WPLASMAI">      0.00000000</i>
   <v name="DFIELD">      0.00000000      0.00000000      0.00000000</v>
   <v name="WPLASMA">      0.00000000      0.00000000      0.00000000      0.00000000      0.00000000      0.00000000      0.00000000      0.00000000      0.00000000</v>
  </separator>
  <separator name="orbital magnetization" >
   <i type="logical" name="NUCIND"> F  </i>
   <v name="MAGPOS">      0.00000000      0.00000000      0.00000000</v>
   <i type="logical" name="LNICSALL"> T  </i>
   <i type="logical" name="ORBITALMAG"> F  </i>
   <i type="logical" name="LMAGBLOCH"> F  </i>
   <i type="logical" name="LCHIMAG"> F  </i>
   <i type="logical" name="LGAUGE"> T  </i>
   <i type="int" name="MAGATOM">     0</i>
   <v name="MAGDIPOL">      0.00000000      0.00000000      0.00000000</v>
   <v name="AVECCONST">      0.00000000      0.00000000      0.00000000</v>
  </separator>
  <separator name="response functions" >
   <i type="logical" name="LADDER"> F  </i>
   <i type="logical" name="LRPAFORCE"> F  </i>
   <i type="logical" name="LFXC"> F  </i>
   <i type="logical" name="LHARTREE"> T  </i>
   <i type="int" name="IBSE">     0</i>
   <v type="int" name="KPOINT">    -1     0     0     0</v>
   <i type="logical" name="LTCTE"> F  </i>
   <i type="logical" name="LTETE"> F  </i>
   <i type="logical" name="LTRIPLET"> F  </i>
   <i type="logical" name="LFXCEPS"> F  </i>
   <i type="logical" name="LFXHEG"> F  </i>
   <i type="int" name="NATURALO">     2</i>
   <i type="logical" name="L2ORDER"> F  </i>
   <i type="logical" name="LMP2LT"> F  </i>
   <i type="logical" name="LUSEW"> F  </i>
   <i name="ENCUTGW">     -2.00000000</i>
   <i name="ENCUTGWSOFT">     -2.00000000</i>
   <i name="ENCUTLF">     -1.00000000</i>
   <i type="int" name="LMAXMP2">    -1</i>
   <i name="SCISSOR">      0.00000000</i>
   <i type="int" name="NOMEGA">     0</i>
   <i type="int" name="NOMEGAR">     0</i>
   <i type="int" name="NBANDSGW">    -1</i>
   <i type="int" name="NBANDSO">    -1</i>
   <i type="int" name="NBANDSV">    -1</i>
   <i type="int" name="NELM">   400</i>
   <i type="int" name="NELMHF">     1</i>
   <i type="int" name="DIM">     3</i>
   <i type="int" name="ANTIRES">     0</i>
   <i name="OMEGAMAX">    -30.00000000</i>
   <i name="OMEGAMIN">    -30.00000000</i>
   <i name="OMEGATL">   -200.00000000</i>
   <i type="int" name="OMEGAGRID">   140</i>
   <i name="CSHIFT">     -0.10000000</i>
   <i type="logical" name="SELFENERGY"> F  </i>
   <i type="logical" name="LSPECTRAL"> F  </i>
   <i type="logical" name="LSPECTRALGW"> F  </i>
   <i type="logical" name="LSINGLES"> F  </i>
   <i type="logical" name="LFERMIGW"> F  </i>
   <i type="logical" name="ODDONLYGW"> F  </i>
   <i type="logical" name="EVENONLYGW"> F  </i>
   <i type="int" name="NKREDLFX">     1</i>
   <i type="int" name="NKREDLFY">     1</i>
   <i type="int" name="NKREDLFZ">     1</i>
   <i type="int" name="MAXMEM">  2800</i>
   <i type="int" name="TELESCOPE">     0</i>
   <i type="int" name="TAUPAR">     1</i>
   <i type="int" name="OMEGAPAR">    -1</i>
   <i name="LAMBDA">      1.00000000</i>
  </separator>
  <separator name="External order field" >
   <i name="OFIELD_KAPPA">      0.00000000</i>
   <v name="OFIELD_K">      0.00000000      0.00000000      0.00000000</v>
   <i name="OFIELD_Q6_NEAR">      0.00000000</i>
   <i name="OFIELD_Q6_FAR">      0.00000000</i>
   <i name="OFIELD_A">      0.00000000</i>
  </separator>
 </parameters>
 <atominfo>
  <atoms>      10 </atoms>
  <types>       4 </types>
  <array name="atoms" >
   <dimension dim="1">ion</dimension>
   <field type="string">element</field>
   <field type="int">atomtype</field>
   <set>
    <rc><c>Cr</c><c>   1</c></rc>
    <rc><c>Cr</c><c>   1</c></rc>
    <rc><c>Si</c><c>   2</c></rc>
    <rc><c>P </c><c>   3</c></rc>
    <rc><c>S </c><c>   4</c></rc>
    <rc><c>S </c><c>   4</c></rc>
    <rc><c>S </c><c>   4</c></rc>
    <rc><c>S </c><c>   4</c></rc>
    <rc><c>S </c><c>   4</c></rc>
    <rc><c>S </c><c>   4</c></rc>
   </set>
  </array>
  <array name="atomtypes" >
   <dimension dim="1">type</dimension>
   <field type="int">atomspertype</field>
   <field type="string">element</field>
   <field>mass</field>
   <field>valence</field>
   <field type="string">pseudopotential</field>
   <set>
    <rc><c>   2</c><c>Cr</c><c>     51.99600000</c><c>      6.00000000</c><c> PAW_PBE Cr 06Sep2000                   </c></rc>
    <rc><c>   1</c><c>Si</c><c>     28.08500000</c><c>      4.00000000</c><c> PAW_PBE Si 05Jan2001                   </c></rc>
    <rc><c>   1</c><c>P </c><c>     30.97400000</c><c>      5.00000000</c><c>  PAW_PBE P 17Jan2003                   </c></rc>
    <rc><c>   6</c><c>S </c><c>     32.06600000</c><c>      6.00000000</c><c>  PAW_PBE S 17Jan2003                   </c></rc>
   </set>
  </array>
 </atominfo>
 <structure name="initialpos" >
  <crystal>
   <varray name="basis" >
    <v>       6.90777700      -0.00000000       0.00000000 </v>
    <v>       3.45388800       5.98231000       0.00000000 </v>
    <v>       0.00000000       0.00000000      23.44458800 </v>
   </varray>
   <i name="volume">    968.83501932 </i>
   <varray name="rec_basis" >
    <v>       0.14476437      -0.08357974       0.00000000 </v>
    <v>       0.00000000       0.16715951      -0.00000000 </v>
    <v>      -0.00000000       0.00000000       0.04265377 </v>
   </varray>
  </crystal>
  <varray name="positions" >
   <v>       0.33333300       0.33333300       0.49992500 </v>
   <v>       0.66666700       0.66666700       0.50007500 </v>
   <v>       0.00000000       0.00000000       0.44821600 </v>
   <v>       0.00000000       0.00000000       0.55178400 </v>
   <v>       0.62635700       0.00042000       0.57375200 </v>
   <v>       0.00042000       0.37322400       0.57375200 </v>
   <v>       0.37322400       0.62635700       0.57375200 </v>
   <v>       0.37364300       0.99958000       0.42624800 </v>
   <v>       0.99958000       0.62677600       0.42624800 </v>
   <v>       0.62677600       0.37364300       0.42624800 </v>
  </varray>
  <varray name="selective"  type="logical" >
   <v type="logical" >  F  F  F </v>
   <v type="logical" >  F  F  F </v>
   <v type="logical" >  T  T  T </v>
   <v type="logical" >  T  T  T </v>
   <v type="logical" >  T  T  T </v>
   <v type="logical" >  T  T  T </v>
   <v type="logical" >  T  T  T </v>
   <v type="logical" >  T  T  T </v>
   <v type="logical" >  T  T  T </v>
   <v type="logical" >  T  T  T </v>
  </varray>
  <nose>
   <v>      -3.00000000       0.00000000       0.00010000       0.00010000 </v>
  </nose>
 </structure>
 <calculation>
  <scstep>
   <time name="dav">   22.50   22.59</time>
   <time name="total">   75.26   75.40</time>
   <energy>
    <i name="alphaZ">     18.65691695 </i>
    <i name="ewald">   6221.61188061 </i>
    <i name="hartreedc">  -8428.34184557 </i>
    <i name="XCdc">     23.44842540 </i>
    <i name="pawpsdc">   1124.22891962 </i>
    <i name="pawaedc">  -1033.92993748 </i>
    <i name="eentropy">      0.00000000 </i>
    <i name="bandstr">    -20.43259013 </i>
    <i name="atom">   2503.28425743 </i>
    <i name="e_fr_energy">    408.52602682 </i>
    <i name="e_wo_entrp">    408.52602682 </i>
    <i name="e_0_energy">    408.52602682 </i>
   </energy>
  </scstep>
  <scstep>
   <time name="dav">   26.34   26.63</time>
   <time name="total">   26.35   26.63</time>
   <energy>
    <i name="e_fr_energy">     37.18317481 </i>
    <i name="e_wo_entrp">     37.18317481 </i>
    <i name="e_0_energy">     37.18317481 </i>
   </energy>
  </scstep>
  <scstep>
   <time name="dav">   31.70   31.81</time>
   <time name="total">   31.71   31.81</time>
   <energy>
    <i name="e_fr_energy">    -50.11140987 </i>
    <i name="e_wo_entrp">    -50.11140987 </i>
    <i name="e_0_energy">    -50.11140987 </i>
   </energy>
  </scstep>
  <scstep>
   <time name="dav">   30.26   30.43</time>
   <time name="total">   30.26   30.43</time>
   <energy>
    <i name="e_fr_energy">    -55.39325075 </i>
    <i name="e_wo_entrp">    -55.39325075 </i>
    <i name="e_0_energy">    -55.39325075 </i>
   </energy>
  </scstep>
  <scstep>
   <time name="dav">   30.08   30.11</time>
   <time name="total">   32.05   32.08</time>
   <energy>
    <i name="e_fr_energy">    -55.52448130 </i>
    <i name="e_wo_entrp">    -55.52448130 </i>
    <i name="e_0_energy">    -55.52448130 </i>
   </energy>
  </scstep>
  <scstep>
   <time name="dav">   29.60   29.84</time>
   <time name="total">   84.26   84.52</time>
   <energy>
    <i name="e_fr_energy">   -132.14481177 </i>
    <i name="e_wo_entrp">   -132.14481177 </i>
    <i name="e_0_energy">   -132.14481177 </i>
   </energy>
  </scstep>
  <scstep>
   <time name="dav">   26.36   26.41</time>
   <time name="total">   80.57   80.71</time>
   <energy>
    <i name="e_fr_energy">    -42.40699671 </i>
    <i name="e_wo_entrp">    -42.40699671 </i>
    <i name="e_0_energy">    -42.40699671 </i>
   </energy>
  </scstep>
  <scstep>
   <time name="dav">   36.30   37.09</time>
   <time name="total">   90.94   91.84</time>
   <energy>
    <i name="e_fr_energy">   -131.45485326 </i>
    <i name="e_wo_entrp">   -131.45485326 </i>
    <i name="e_0_energy">   -131.45485326 </i>
   </energy>
  </scstep>
  <scstep>
   <time name="dav">   28.56   28.70</time>
   <time name="total">   82.20   82.63</time>
   <energy>
    <i name="e_fr_energy">    -87.61728001 </i>
    <i name="e_wo_entrp">    -87.61728001 </i>
    <i name="e_0_energy">    -87.61728001 </i>
   </energy>
  </scstep>
  <scstep>
   <time name="dav">   26.55   26.65</time>
   <time name="total">   79.28   79.53</time>
   <energy>
    <i name="e_fr_energy">    -45.23711189 </i>
    <i name="e_wo_entrp">    -45.23711189 </i>
    <i name="e_0_energy">    -45.23711189 </i>
   </energy>
  </scstep>
  <scstep>
   <time name="dav">   32.42   32.53</time>
   <time name="total">   85.07   85.43</time>
   <energy>
    <i name="e_fr_energy">    -47.39743161 </i>
    <i name="e_wo_entrp">    -47.39743161 </i>
    <i name="e_0_energy">    -47.39743161 </i>
   </energy>
  </scstep>
  <scstep>
   <time name="dav">   31.58   31.80</time>
   <time name="total">   84.30   84.70</time>
   <energy>
    <i name="e_fr_energy">    -47.84864728 </i>
    <i name="e_wo_entrp">    -47.84864728 </i>
    <i name="e_0_energy">    -47.84864728 </i>
   </energy>
  </scstep>
  <scstep>
   <time name="dav">   33.04   33.14</time>
   <time name="total">   86.03   86.26</time>
   <energy>
    <i name="e_fr_energy">    -47.97076100 </i>
    <i name="e_wo_entrp">    -47.97076100 </i>
    <i name="e_0_energy">    -47.97076100 </i>
   </energy>
  </scstep>
  <scstep>
   <time name="dav">   33.68   33.76</time>
   <time name="total">   86.44   86.70</time>
   <energy>
    <i name="e_fr_energy">    -48.06279152 </i>
    <i name="e_wo_entrp">    -48.06279152 </i>
    <i name="e_0_energy">    -48.06279152 </i>
   </energy>
  </scstep>
  <scstep>
   <time name="dav">   29.72   29.82</time>
   <time name="total">   82.60   82.78</time>
   <energy>
    <i name="e_fr_energy">    -48.22864208 </i>
    <i name="e_wo_entrp">    -48.22864208 </i>
    <i name="e_0_energy">    -48.22864208 </i>
   </energy>
  </scstep>
  <scstep>
   <time name="dav">   28.76   28.86</time>
   <time name="total">   81.69   81.83</time>
   <energy>
    <i name="e_fr_energy">    -48.38393970 </i>
    <i name="e_wo_entrp">    -48.38393970 </i>
    <i name="e_0_energy">    -48.38393970 </i>
   </energy>
  </scstep>
  <scstep>
   <time name="dav">   23.36   23.41</time>
   <time name="total">   75.90   76.21</time>
   <energy>
    <i name="e_fr_energy">    -48.43065536 </i>
    <i name="e_wo_entrp">    -48.43065536 </i>
    <i name="e_0_energy">    -48.43065536 </i>
   </energy>
  </scstep>
  <scstep>
   <time name="dav">   28.43   28.57</time>
   <time name="total">   80.99   81.46</time>
   <energy>
    <i name="e_fr_energy">    -48.43983263 </i>
    <i name="e_wo_entrp">    -48.43983263 </i>
    <i name="e_0_energy">    -48.43983263 </i>
   </energy>
  </scstep>
  <scstep>
   <time name="dav">   29.46   29.80</time>
   <time name="total">   82.02   82.76</time>
   <energy>
    <i name="e_fr_energy">    -48.44457150 </i>
    <i name="e_wo_entrp">    -48.44457150 </i>
    <i name="e_0_energy">    -48.44457150 </i>
   </energy>
  </scstep>
  <scstep>
   <time name="dav">   23.16   23.47</time>
   <time name="total">   76.06   76.63</time>
   <energy>
    <i name="e_fr_energy">    -48.44878111 </i>
    <i name="e_wo_entrp">    -48.44878111 </i>
    <i name="e_0_energy">    -48.44878111 </i>
   </energy>
  </scstep>
  <scstep>
   <time name="dav">   21.42   21.76</time>
   <time name="total">   74.09   74.74</time>
   <energy>
    <i name="e_fr_energy">    -48.45303222 </i>
    <i name="e_wo_entrp">    -48.45303222 </i>
    <i name="e_0_energy">    -48.45303222 </i>
   </energy>
  </scstep>
  <scstep>
   <time name="dav">   21.23   21.42</time>
   <time name="total">   74.50   75.11</time>
   <energy>
    <i name="e_fr_energy">    -48.45652731 </i>
    <i name="e_wo_entrp">    -48.45652731 </i>
    <i name="e_0_energy">    -48.45652731 </i>
   </energy>
  </scstep>
  <scstep>
   <time name="dav">   22.75   22.86</time>
   <time name="total">   76.62   76.75</time>
   <energy>
    <i name="e_fr_energy">    -48.46191693 </i>
    <i name="e_wo_entrp">    -48.46191693 </i>
    <i name="e_0_energy">    -48.46191693 </i>
   </energy>
  </scstep>
  <scstep>
   <time name="dav">   22.50   22.53</time>
   <time name="total">   75.62   75.78</time>
   <energy>
    <i name="e_fr_energy">    -48.46563909 </i>
    <i name="e_wo_entrp">    -48.46563909 </i>
    <i name="e_0_energy">    -48.46563909 </i>
   </energy>
  </scstep>
  <scstep>
   <time name="dav">   19.34   19.37</time>
   <time name="total">   72.25   72.47</time>
   <energy>
    <i name="e_fr_energy">    -48.46737951 </i>
    <i name="e_wo_entrp">    -48.46737951 </i>
    <i name="e_0_energy">    -48.46737951 </i>
   </energy>
  </scstep>
  <scstep>
   <time name="dav">   21.30   21.36</time>
   <time name="total">   74.20   74.51</time>
   <energy>
    <i name="e_fr_energy">    -48.46834728 </i>
    <i name="e_wo_entrp">    -48.46834728 </i>
    <i name="e_0_energy">    -48.46834728 </i>
   </energy>
  </scstep>
  <scstep>
   <time name="dav">   18.67   18.85</time>
   <time name="total">   71.75   72.31</time>
   <energy>
    <i name="e_fr_energy">    -48.46919395 </i>
    <i name="e_wo_entrp">    -48.46919395 </i>
    <i name="e_0_energy">    -48.46919395 </i>
   </energy>
  </scstep>
  <scstep>
   <time name="dav">   23.57   23.72</time>
   <time name="total">   76.86   77.24</time>
   <energy>
    <i name="e_fr_energy">    -48.47123020 </i>
    <i name="e_wo_entrp">    -48.47123020 </i>
    <i name="e_0_energy">    -48.47123020 </i>
   </energy>
  </scstep>
  <scstep>
   <time name="dav">   22.00   22.05</time>
   <time name="total">   75.01   75.20</time>
   <energy>
    <i name="e_fr_energy">    -48.47449674 </i>
    <i name="e_wo_entrp">    -48.47449674 </i>
    <i name="e_0_energy">    -48.47449674 </i>
   </energy>
  </scstep>
  <scstep>
   <time name="dav">   23.17   23.43</time>
   <time name="total">   76.12   76.41</time>
   <energy>
    <i name="e_fr_energy">    -48.47732834 </i>
    <i name="e_wo_entrp">    -48.47732834 </i>
    <i name="e_0_energy">    -48.47732834 </i>
   </energy>
  </scstep>
  <scstep>
   <time name="dav">   21.80   21.99</time>
   <time name="total">   75.40   76.19</time>
   <energy>
    <i name="e_fr_energy">    -48.48075025 </i>
    <i name="e_wo_entrp">    -48.48075025 </i>
    <i name="e_0_energy">    -48.48075025 </i>
   </energy>
  </scstep>
  <scstep>
   <time name="dav">   21.08   21.25</time>
   <time name="total">   74.91   75.36</time>
   <energy>
    <i name="e_fr_energy">    -48.48353037 </i>
    <i name="e_wo_entrp">    -48.48353037 </i>
    <i name="e_0_energy">    -48.48353037 </i>
   </energy>
  </scstep>
  <scstep>
   <time name="dav">   22.09   22.31</time>
   <time name="total">   74.76   75.34</time>
   <energy>
    <i name="e_fr_energy">    -48.48646078 </i>
    <i name="e_wo_entrp">    -48.48646078 </i>
    <i name="e_0_energy">    -48.48646078 </i>
   </energy>
  </scstep>
  <scstep>
   <time name="dav">   23.61   23.74</time>
   <time name="total">   76.57   77.04</time>
   <energy>
    <i name="e_fr_energy">    -48.48915997 </i>
    <i name="e_wo_entrp">    -48.48915997 </i>
    <i name="e_0_energy">    -48.48915997 </i>
   </energy>
  </scstep>
  <scstep>
   <time name="dav">   23.26   23.33</time>
   <time name="total">   76.66   76.87</time>
   <energy>
    <i name="e_fr_energy">    -48.49151428 </i>
    <i name="e_wo_entrp">    -48.49151428 </i>
    <i name="e_0_energy">    -48.49151428 </i>
   </energy>
  </scstep>
  <scstep>
   <time name="dav">   21.80   22.07</time>
   <time name="total">   74.46   75.31</time>
   <energy>
    <i name="e_fr_energy">    -48.49365323 </i>
    <i name="e_wo_entrp">    -48.49365323 </i>
    <i name="e_0_energy">    -48.49365323 </i>
   </energy>
  </scstep>
  <scstep>
   <time name="dav">   20.40   20.69</time>
   <time name="total">   73.35   74.22</time>
   <energy>
    <i name="e_fr_energy">    -48.49568273 </i>
    <i name="e_wo_entrp">    -48.49568273 </i>
    <i name="e_0_energy">    -48.49568273 </i>
   </energy>
  </scstep>
  <scstep>
   <time name="dav">   21.79   21.89</time>
   <time name="total">   74.86   75.02</time>
   <energy>
    <i name="e_fr_energy">    -48.49837251 </i>
    <i name="e_wo_entrp">    -48.49837251 </i>
    <i name="e_0_energy">    -48.49837251 </i>
   </energy>
  </scstep>
  <scstep>
   <time name="dav">   22.40   22.47</time>
   <time name="total">   75.62   75.79</time>
   <energy>
    <i name="e_fr_energy">    -48.50152418 </i>
    <i name="e_wo_entrp">    -48.50152418 </i>
    <i name="e_0_energy">    -48.50152418 </i>
   </energy>
  </scstep>
  <scstep>
   <time name="dav">   20.59   20.68</time>
   <time name="total">   73.57   74.00</time>
   <energy>
    <i name="e_fr_energy">    -48.50390320 </i>
    <i name="e_wo_entrp">    -48.50390320 </i>
    <i name="e_0_energy">    -48.50390320 </i>
   </energy>
  </scstep>
  <scstep>
   <time name="dav">   24.52   24.65</time>
   <time name="total">   77.66   78.09</time>
   <energy>
    <i name="e_fr_energy">    -48.50572651 </i>
    <i name="e_wo_entrp">    -48.50572651 </i>
    <i name="e_0_energy">    -48.50572651 </i>
   </energy>
  </scstep>
  <scstep>
   <time name="dav">   19.08   19.11</time>
   <time name="total">   72.15   72.35</time>
   <energy>
    <i name="e_fr_energy">    -48.50620264 </i>
    <i name="e_wo_entrp">    -48.50620264 </i>
    <i name="e_0_energy">    -48.50620264 </i>
   </energy>
  </scstep>
  <scstep>
   <time name="dav">   19.98   20.16</time>
   <time name="total">   72.91   73.45</time>
   <energy>
    <i name="e_fr_energy">    -48.50639733 </i>
    <i name="e_wo_entrp">    -48.50639733 </i>
    <i name="e_0_energy">    -48.50639733 </i>
   </energy>
  </scstep>
  <scstep>
   <time name="dav">   19.80   19.94</time>
   <time name="total">   72.76   73.21</time>
   <energy>
    <i name="e_fr_energy">    -48.50661979 </i>
    <i name="e_wo_entrp">    -48.50661979 </i>
    <i name="e_0_energy">    -48.50661979 </i>
   </energy>
  </scstep>
  <scstep>
   <time name="dav">   21.30   21.36</time>
   <time name="total">   74.18   74.63</time>
   <energy>
    <i name="e_fr_energy">    -48.50688323 </i>
    <i name="e_wo_entrp">    -48.50688323 </i>
    <i name="e_0_energy">    -48.50688323 </i>
   </energy>
  </scstep>
  <scstep>
   <time name="dav">   17.92   17.97</time>
   <time name="total">   68.78   68.98</time>
   <energy>
    <i name="alphaZ">     18.65691695 </i>
    <i name="ewald">   6221.61188061 </i>
    <i name="hartreedc">  -8422.53692145 </i>
    <i name="XCdc">     23.59713323 </i>
    <i name="pawpsdc">   1116.17806778 </i>
    <i name="pawaedc">  -1025.86186976 </i>
    <i name="eentropy">      0.00000000 </i>
    <i name="bandstr">   -483.43643265 </i>
    <i name="atom">   2503.28425743 </i>
    <i name="e_fr_energy">    -48.50696785 </i>
    <i name="e_wo_entrp">    -48.50696785 </i>
    <i name="e_0_energy">    -48.50696785 </i>
   </energy>
  </scstep>
  <structure>
   <crystal>
    <varray name="basis" >
     <v>       6.90777700      -0.00000000       0.00000000 </v>
     <v>       3.45388800       5.98231000       0.00000000 </v>
     <v>       0.00000000       0.00000000      23.44458800 </v>
    </varray>
    <i name="volume">    968.83501932 </i>
    <varray name="rec_basis" >
     <v>       0.14476437      -0.08357974       0.00000000 </v>
     <v>       0.00000000       0.16715951      -0.00000000 </v>
     <v>      -0.00000000       0.00000000       0.04265377 </v>
    </varray>
   </crystal>
   <varray name="positions" >
    <v>       0.33333300       0.33333300       0.49992500 </v>
    <v>       0.66666700       0.66666700       0.50007500 </v>
    <v>       0.00000000       0.00000000       0.44821600 </v>
    <v>       0.00000000       0.00000000       0.55178400 </v>
    <v>       0.62635700       0.00042000       0.57375200 </v>
    <v>       0.00042000       0.37322400       0.57375200 </v>
    <v>       0.37322400       0.62635700       0.57375200 </v>
    <v>       0.37364300       0.99958000       0.42624800 </v>
    <v>       0.99958000       0.62677600       0.42624800 </v>
    <v>       0.62677600       0.37364300       0.42624800 </v>
   </varray>
  </structure>
  <varray name="forces" >
   <v>       0.00000000      -0.00000000      -0.03683571 </v>
   <v>       0.00000000      -0.00000000      -0.05587719 </v>
   <v>       0.00000000      -0.00000000       0.15171335 </v>
   <v>       0.00000000       0.00000000       0.07835878 </v>
   <v>       0.92486775      -0.00342702      -1.80924174 </v>
   <v>      -0.46540170      -0.79924541      -1.80924174 </v>
   <v>      -0.45946605       0.80267243      -1.80924174 </v>
   <v>      -1.38109721       0.00250450       1.76345533 </v>
   <v>       0.69271746       1.19481295       1.76345533 </v>
   <v>       0.68837975      -1.19731744       1.76345533 </v>
  </varray>
  <varray name="stress" >
   <v>     -47.05636499       0.00000394       0.00000000 </v>
   <v>       0.00000392     -47.05635923       0.00000000 </v>
   <v>      -0.00000000       0.00000000     -31.05069732 </v>
  </varray>
  <energy>
   <i name="e_fr_energy">    -48.50696785 </i>
   <i name="e_wo_entrp">    -48.50696785 </i>
   <i name="e_0_energy">      0.00000000 </i>
  </energy>
  <time name="totalsc"> 3515.90 3535.26</time>
 </calculation>
 <calculation>
  <scstep>
   <time name="dav">   28.54   28.61</time>
   <time name="total">   82.11   82.86</time>
   <energy>
    <i name="alphaZ">     27.56326797 </i>
    <i name="ewald">   8011.08175316 </i>
    <i name="hartreedc"> -10475.27570912 </i>
    <i name="XCdc">     41.82703208 </i>
    <i name="pawpsdc">   1116.17755755 </i>
    <i name="pawaedc">  -1025.86133179 </i>
    <i name="eentropy">      0.00000000 </i>
    <i name="bandstr">   -286.44273020 </i>
    <i name="atom">   2503.28425743 </i>
    <i name="e_fr_energy">    -87.64590293 </i>
    <i name="e_wo_entrp">    -87.64590293 </i>
    <i name="e_0_energy">    -87.64590293 </i>
   </energy>
  </scstep>
  <scstep>
   <time name="dav">   31.00   31.49</time>
   <time name="total">   84.57   85.48</time>
   <energy>
    <i name="e_fr_energy">    -74.54678768 </i>
    <i name="e_wo_entrp">    -74.54678768 </i>
    <i name="e_0_energy">    -74.54678768 </i>
   </energy>
  </scstep>
  <scstep>
   <time name="dav">   35.02   35.52</time>
   <time name="total">   88.02   89.62</time>
   <energy>
    <i name="e_fr_energy">    -70.19264335 </i>
    <i name="e_wo_entrp">    -70.19264335 </i>
    <i name="e_0_energy">    -70.19264335 </i>
   </energy>
  </scstep>
  <scstep>
   <time name="dav">   30.50   30.62</time>
   <time name="total">   84.41   84.91</time>
   <energy>
    <i name="e_fr_energy">    -55.24023939 </i>
    <i name="e_wo_entrp">    -55.24023939 </i>
    <i name="e_0_energy">    -55.24023939 </i>
   </energy>
  </scstep>
  <scstep>
   <time name="dav">   33.31   33.69</time>
   <time name="total">   87.13   87.78</time>
   <energy>
    <i name="e_fr_energy">    -54.38537640 </i>
    <i name="e_wo_entrp">    -54.38537640 </i>
    <i name="e_0_energy">    -54.38537640 </i>
   </energy>
  </scstep>
  <scstep>
   <time name="dav">   28.72   28.98</time>
   <time name="total">   82.94   83.42</time>
   <energy>
    <i name="e_fr_energy">    -54.96985187 </i>
    <i name="e_wo_entrp">    -54.96985187 </i>
    <i name="e_0_energy">    -54.96985187 </i>
   </energy>
  </scstep>
  <scstep>
   <time name="dav">   28.50   28.71</time>
   <time name="total">   82.56   83.02</time>
   <energy>
    <i name="e_fr_energy">    -54.79233532 </i>
    <i name="e_wo_entrp">    -54.79233532 </i>
    <i name="e_0_energy">    -54.79233532 </i>
   </energy>
  </scstep>
  <scstep>
   <time name="dav">   28.45   28.59</time>
   <time name="total">   82.54   82.83</time>
   <energy>
    <i name="e_fr_energy">    -55.43398815 </i>
    <i name="e_wo_entrp">    -55.43398815 </i>
    <i name="e_0_energy">    -55.43398815 </i>
   </energy>
  </scstep>
  <scstep>
   <time name="dav">   30.34   30.60</time>
   <time name="total">   84.32   84.79</time>
   <energy>
    <i name="e_fr_energy">    -55.91944500 </i>
    <i name="e_wo_entrp">    -55.91944500 </i>
    <i name="e_0_energy">    -55.91944500 </i>
   </energy>
  </scstep>
  <scstep>
   <time name="dav">   31.35   31.57</time>
   <time name="total">   85.42   85.69</time>
   <energy>
    <i name="e_fr_energy">    -55.93208046 </i>
    <i name="e_wo_entrp">    -55.93208046 </i>
    <i name="e_0_energy">    -55.93208046 </i>
   </energy>
  </scstep>
  <scstep>
   <time name="dav">   33.46   33.64</time>
   <time name="total">   87.18   87.68</time>
   <energy>
    <i name="e_fr_energy">    -55.93382060 </i>
    <i name="e_wo_entrp">    -55.93382060 </i>
    <i name="e_0_energy">    -55.93382060 </i>
   </energy>
  </scstep>
  <scstep>
   <time name="dav">   30.12   30.39</time>
   <time name="total">   83.90   84.51</time>
   <energy>
    <i name="e_fr_energy">    -55.94882463 </i>
    <i name="e_wo_entrp">    -55.94882463 </i>
    <i name="e_0_energy">    -55.94882463 </i>
   </energy>
  </scstep>
  <scstep>
   <time name="dav">   25.92   26.01</time>
   <time name="total">   80.01   80.24</time>
   <energy>
    <i name="e_fr_energy">    -55.95885855 </i>
    <i name="e_wo_entrp">    -55.95885855 </i>
    <i name="e_0_energy">    -55.95885855 </i>
   </energy>
  </scstep>
  <scstep>
   <time name="dav">   23.94   24.05</time>
   <time name="total">   77.70   78.22</time>
   <energy>
    <i name="e_fr_energy">    -55.96255876 </i>
    <i name="e_wo_entrp">    -55.96255876 </i>
    <i name="e_0_energy">    -55.96255876 </i>
   </energy>
  </scstep>
  <scstep>
   <time name="dav">   24.50   24.69</time>
   <time name="total">   78.42   78.84</time>
   <energy>
    <i name="e_fr_energy">    -55.96385159 </i>
    <i name="e_wo_entrp">    -55.96385159 </i>
    <i name="e_0_energy">    -55.96385159 </i>
   </energy>
  </scstep>
  <scstep>
   <time name="dav">   23.62   23.74</time>
   <time name="total">   77.77   78.07</time>
   <energy>
    <i name="e_fr_energy">    -55.96475424 </i>
    <i name="e_wo_entrp">    -55.96475424 </i>
    <i name="e_0_energy">    -55.96475424 </i>
   </energy>
  </scstep>
  <scstep>
   <time name="dav">   24.78   24.99</time>
   <time name="total">   78.42   79.21</time>
   <energy>
    <i name="e_fr_energy">    -55.96544321 </i>
    <i name="e_wo_entrp">    -55.96544321 </i>
    <i name="e_0_energy">    -55.96544321 </i>
   </energy>
  </scstep>
  <scstep>
   <time name="dav">   22.61   22.84</time>
   <time name="total">   74.36   74.86</time>
   <energy>
    <i name="alphaZ">     27.56326797 </i>
    <i name="ewald">   8011.08175316 </i>
    <i name="hartreedc"> -10254.35918584 </i>
    <i name="XCdc">     30.22001466 </i>
    <i name="pawpsdc">   1248.96816659 </i>
    <i name="pawaedc">  -1160.23850135 </i>
    <i name="eentropy">      0.00000000 </i>
    <i name="bandstr">   -462.48519868 </i>
    <i name="atom">   2503.28425743 </i>
    <i name="e_fr_energy">    -55.96542605 </i>
    <i name="e_wo_entrp">    -55.96542605 </i>
    <i name="e_0_energy">    -55.96542605 </i>
   </energy>
  </scstep>
  <structure>
   <crystal>
    <varray name="basis" >
     <v>       5.95951767       0.00000008       0.00000000 </v>
     <v>       2.97975847       5.16109352       0.00000000 </v>
     <v>      -0.00000000       0.00000000      21.32093086 </v>
    </varray>
    <i name="volume">    655.78125624 </i>
    <varray name="rec_basis" >
     <v>       0.16779882      -0.09687868       0.00000000 </v>
     <v>      -0.00000000       0.19375739      -0.00000000 </v>
     <v>       0.00000000      -0.00000000       0.04690227 </v>
    </varray>
   </crystal>
   <varray name="positions" >
    <v>       0.33333300       0.33333300       0.49992500 </v>
    <v>       0.66666700       0.66666700       0.50007500 </v>
    <v>       0.00000000      -0.00000000       0.44852819 </v>
    <v>       0.00000000       0.00000000       0.55194524 </v>
    <v>       0.63282993       0.00039236       0.57002907 </v>
    <v>       0.00039236       0.36677871       0.57002907 </v>
    <v>       0.36677871       0.63282993       0.57002907 </v>
    <v>       0.36398757       0.99960020       0.42987672 </v>
    <v>       0.99960020       0.63641123       0.42987672 </v>
    <v>       0.63641123       0.36398757       0.42987672 </v>
   </varray>
  </structure>
  <varray name="forces" >
   <v>       0.00000000       0.00000000       0.24187005 </v>
   <v>       0.00000000       0.00000000       0.24515481 </v>
   <v>       0.00000000       0.00000000      -0.28961244 </v>
   <v>       0.00000000       0.00000000       0.78032548 </v>
   <v>       0.44034452      -0.00967702      -0.16430579 </v>
   <v>      -0.22855279      -0.37651101      -0.16430579 </v>
   <v>      -0.21179173       0.38618804      -0.16430579 </v>
   <v>      -0.83680307       0.01089294      -0.16160684 </v>
   <v>       0.42783506       0.71924622      -0.16160684 </v>
   <v>       0.40896802      -0.73013916      -0.16160684 </v>
  </varray>
  <varray name="stress" >
   <v>      -6.27952413      -0.00000022      -0.00000000 </v>
   <v>       0.00000094      -6.27952360       0.00000000 </v>
   <v>       0.00000000       0.00000000       2.70457188 </v>
  </varray>
  <energy>
   <i name="e_fr_energy">    -55.96542605 </i>
   <i name="e_wo_entrp">    -55.96542605 </i>
   <i name="e_0_energy">      0.00000000 </i>
  </energy>
  <time name="totalsc"> 1617.08 1627.91</time>
 </calculation>
 <calculation>
  <scstep>
   <time name="dav">   27.22   27.31</time>
   <time name="total">   81.02   81.45</time>
   <energy>
    <i name="alphaZ">     28.04589959 </i>
    <i name="ewald">   8103.19006659 </i>
    <i name="hartreedc"> -10356.69740259 </i>
    <i name="XCdc">     31.01879613 </i>
    <i name="pawpsdc">   1249.10376871 </i>
    <i name="pawaedc">  -1160.38079446 </i>
    <i name="eentropy">      0.00000000 </i>
    <i name="bandstr">   -453.58725397 </i>
    <i name="atom">   2503.28425743 </i>
    <i name="e_fr_energy">    -56.02266257 </i>
    <i name="e_wo_entrp">    -56.02266257 </i>
    <i name="e_0_energy">    -56.02266257 </i>
   </energy>
  </scstep>
  <scstep>
   <time name="dav">   29.12   29.31</time>
   <time name="total">   83.46   83.71</time>
   <energy>
    <i name="e_fr_energy">    -55.98791138 </i>
    <i name="e_wo_entrp">    -55.98791138 </i>
    <i name="e_0_energy">    -55.98791138 </i>
   </energy>
  </scstep>
  <scstep>
   <time name="dav">   33.52   34.03</time>
   <time name="total">   87.53   88.47</time>
   <energy>
    <i name="e_fr_energy">    -55.98354211 </i>
    <i name="e_wo_entrp">    -55.98354211 </i>
    <i name="e_0_energy">    -55.98354211 </i>
   </energy>
  </scstep>
  <scstep>
   <time name="dav">   32.62   33.04</time>
   <time name="total">   86.69   87.39</time>
   <energy>
    <i name="e_fr_energy">    -55.97794651 </i>
    <i name="e_wo_entrp">    -55.97794651 </i>
    <i name="e_0_energy">    -55.97794651 </i>
   </energy>
  </scstep>
  <scstep>
   <time name="dav">   31.36   31.41</time>
   <time name="total">   85.48   85.66</time>
   <energy>
    <i name="e_fr_energy">    -55.97769881 </i>
    <i name="e_wo_entrp">    -55.97769881 </i>
    <i name="e_0_energy">    -55.97769881 </i>
   </energy>
  </scstep>
  <scstep>
   <time name="dav">   26.34   26.55</time>
   <time name="total">   78.46   78.86</time>
   <energy>
    <i name="alphaZ">     28.04589959 </i>
    <i name="ewald">   8103.19006659 </i>
    <i name="hartreedc"> -10349.56465066 </i>
    <i name="XCdc">     30.62297736 </i>
    <i name="pawpsdc">   1257.59983973 </i>
    <i name="pawaedc">  -1168.98974023 </i>
    <i name="eentropy">      0.00000000 </i>
    <i name="bandstr">   -460.16641435 </i>
    <i name="atom">   2503.28425743 </i>
    <i name="e_fr_energy">    -55.97776453 </i>
    <i name="e_wo_entrp">    -55.97776453 </i>
    <i name="e_0_energy">    -55.97776453 </i>
   </energy>
  </scstep>
  <structure>
   <crystal>
    <varray name="basis" >
     <v>       5.92024209       0.00000008       0.00000000 </v>
     <v>       2.96012069       5.12707988       0.00000000 </v>
     <v>      -0.00000000       0.00000000      21.23297193 </v>
    </varray>
    <i name="volume">    644.49615657 </i>
    <varray name="rec_basis" >
     <v>       0.16891201      -0.09752139       0.00000000 </v>
     <v>      -0.00000000       0.19504280      -0.00000000 </v>
     <v>       0.00000000      -0.00000000       0.04709656 </v>
    </varray>
   </crystal>
   <varray name="positions" >
    <v>       0.33333300       0.33333300       0.49992500 </v>
    <v>       0.66666700       0.66666700       0.50007500 </v>
    <v>       0.00000000      -0.00000000       0.44854240 </v>
    <v>       0.00000000      -0.00000000       0.55195258 </v>
    <v>       0.63314068       0.00039104       0.56985951 </v>
    <v>       0.00039104       0.36646928       0.56985951 </v>
    <v>       0.36646928       0.63314068       0.56985951 </v>
    <v>       0.36352402       0.99960117       0.43004198 </v>
    <v>       0.99960117       0.63687381       0.43004198 </v>
    <v>       0.63687381       0.36352402       0.43004198 </v>
   </varray>
  </structure>
  <varray name="forces" >
   <v>       0.00000000       0.00000000       0.23638072 </v>
   <v>       0.00000000       0.00000000       0.24305349 </v>
   <v>       0.00000000       0.00000000      -0.30905842 </v>
   <v>       0.00000000       0.00000000       0.78944263 </v>
   <v>       0.42469677      -0.01419658      -0.00105515 </v>
   <v>      -0.22464296      -0.36069989      -0.00105515 </v>
   <v>      -0.20005381       0.37489646      -0.00105515 </v>
   <v>      -0.72965885       0.00689253      -0.31888432 </v>
   <v>       0.37079850       0.62845681      -0.31888432 </v>
   <v>       0.35886035      -0.63534934      -0.31888432 </v>
  </varray>
  <varray name="stress" >
   <v>      -1.13700951      -0.00000069       0.00000000 </v>
   <v>       0.00000081      -1.13700942      -0.00000000 </v>
   <v>       0.00000000       0.00000000       5.90356863 </v>
  </varray>
  <energy>
   <i name="e_fr_energy">    -55.97776453 </i>
   <i name="e_wo_entrp">    -55.97776453 </i>
   <i name="e_0_energy">      0.00000000 </i>
  </energy>
  <time name="totalsc">  638.25  641.92</time>
 </calculation>
 <calculation>
  <scstep>
   <time name="dav">   23.65   23.81</time>
   <time name="total">   77.57   78.03</time>
   <energy>
    <i name="alphaZ">     27.99071128 </i>
    <i name="ewald">   8272.66425536 </i>
    <i name="hartreedc"> -10504.74159175 </i>
    <i name="XCdc">     30.57961866 </i>
    <i name="pawpsdc">   1258.10924203 </i>
    <i name="pawaedc">  -1169.51404412 </i>
    <i name="eentropy">      0.00000000 </i>
    <i name="bandstr">   -474.41529170 </i>
    <i name="atom">   2503.28425743 </i>
    <i name="e_fr_energy">    -56.04284281 </i>
    <i name="e_wo_entrp">    -56.04284281 </i>
    <i name="e_0_energy">    -56.04284281 </i>
   </energy>
  </scstep>
  <scstep>
   <time name="dav">   30.15   30.38</time>
   <time name="total">   84.23   84.68</time>
   <energy>
    <i name="e_fr_energy">    -56.09053737 </i>
    <i name="e_wo_entrp">    -56.09053737 </i>
    <i name="e_0_energy">    -56.09053737 </i>
   </energy>
  </scstep>
  <scstep>
   <time name="dav">   31.95   32.08</time>
   <time name="total">   86.04   86.30</time>
   <energy>
    <i name="e_fr_energy">    -56.07979082 </i>
    <i name="e_wo_entrp">    -56.07979082 </i>
    <i name="e_0_energy">    -56.07979082 </i>
   </energy>
  </scstep>
  <scstep>
   <time name="dav">   30.65   30.95</time>
   <time name="total">   84.63   85.28</time>
   <energy>
    <i name="e_fr_energy">    -56.07680221 </i>
    <i name="e_wo_entrp">    -56.07680221 </i>
    <i name="e_0_energy">    -56.07680221 </i>
   </energy>
  </scstep>
  <scstep>
   <time name="dav">   34.26   34.64</time>
   <time name="total">   88.05   88.90</time>
   <energy>
    <i name="e_fr_energy">    -56.07328559 </i>
    <i name="e_wo_entrp">    -56.07328559 </i>
    <i name="e_0_energy">    -56.07328559 </i>
   </energy>
  </scstep>
  <scstep>
   <time name="dav">   32.66   33.05</time>
   <time name="total">   86.78   87.37</time>
   <energy>
    <i name="e_fr_energy">    -56.07315672 </i>
    <i name="e_wo_entrp">    -56.07315672 </i>
    <i name="e_0_energy">    -56.07315672 </i>
   </energy>
  </scstep>
  <scstep>
   <time name="dav">   28.77   28.87</time>
   <time name="total">   82.88   83.18</time>
   <energy>
    <i name="e_fr_energy">    -56.07286989 </i>
    <i name="e_wo_entrp">    -56.07286989 </i>
    <i name="e_0_energy">    -56.07286989 </i>
   </energy>
  </scstep>
  <scstep>
   <time name="dav">   27.08   27.18</time>
   <time name="total">   81.01   81.38</time>
   <energy>
    <i name="e_fr_energy">    -56.07272814 </i>
    <i name="e_wo_entrp">    -56.07272814 </i>
    <i name="e_0_energy">    -56.07272814 </i>
   </energy>
  </scstep>
  <scstep>
   <time name="dav">   22.44   22.56</time>
   <time name="total">   74.40   74.69</time>
   <energy>
    <i name="alphaZ">     27.99071128 </i>
    <i name="ewald">   8272.66425536 </i>
    <i name="hartreedc"> -10512.49946942 </i>
    <i name="XCdc">     30.79644957 </i>
    <i name="pawpsdc">   1256.26174388 </i>
    <i name="pawaedc">  -1167.68772095 </i>
    <i name="eentropy">      0.00000000 </i>
    <i name="bandstr">   -466.88287632 </i>
    <i name="atom">   2503.28425743 </i>
    <i name="e_fr_energy">    -56.07264917 </i>
    <i name="e_wo_entrp">    -56.07264917 </i>
    <i name="e_0_energy">    -56.07264917 </i>
   </energy>
  </scstep>
  <structure>
   <crystal>
    <varray name="basis" >
     <v>       5.89580291       0.00000008       0.00000000 </v>
     <v>       2.94790111       5.10591493       0.00000000 </v>
     <v>      -0.00000000       0.00000000      21.45157795 </v>
    </varray>
    <i name="volume">    645.76688726 </i>
    <varray name="rec_basis" >
     <v>       0.16961218      -0.09792563       0.00000000 </v>
     <v>      -0.00000000       0.19585129      -0.00000000 </v>
     <v>      -0.00000000       0.00000000       0.04661662 </v>
    </varray>
   </crystal>
   <varray name="positions" >
    <v>       0.33333300       0.33333300       0.49992500 </v>
    <v>       0.66666700       0.66666700       0.50007500 </v>
    <v>       0.00000000       0.00000000       0.44783917 </v>
    <v>       0.00000000       0.00000000       0.55376358 </v>
    <v>       0.63680217       0.00025590       0.56980010 </v>
    <v>       0.00025590       0.36294293       0.56980010 </v>
    <v>       0.36294293       0.63680217       0.56980010 </v>
    <v>       0.35734005       0.99966688       0.42936701 </v>
    <v>       0.99966688       0.64299206       0.42936701 </v>
    <v>       0.64299206       0.35734005       0.42936701 </v>
   </varray>
  </structure>
  <varray name="forces" >
   <v>      -0.00000000       0.00000000       0.03661848 </v>
   <v>      -0.00000000       0.00000000       0.03081205 </v>
   <v>      -0.00000000       0.00000000       0.82850068 </v>
   <v>      -0.00000000      -0.00000000      -0.59530604 </v>
   <v>       0.08530020      -0.00475034       0.07806138 </v>
   <v>      -0.04676401      -0.07149697       0.07806138 </v>
   <v>      -0.03853619       0.07624731       0.07806138 </v>
   <v>      -0.15981311       0.00800322      -0.17826977 </v>
   <v>       0.08683754       0.13440060      -0.17826977 </v>
   <v>       0.07297557      -0.14240382      -0.17826977 </v>
  </varray>
  <varray name="stress" >
   <v>       3.15914272      -0.00000090       0.00000000 </v>
   <v>       0.00000055       3.15914246       0.00000000 </v>
   <v>       0.00000000       0.00000000      -0.52234670 </v>
  </varray>
  <energy>
   <i name="e_fr_energy">    -56.07264917 </i>
   <i name="e_wo_entrp">    -56.07264917 </i>
   <i name="e_0_energy">      0.00000000 </i>
  </energy>
  <time name="totalsc">  881.60  886.32</time>
 </calculation>
 <calculation>
  <scstep>
   <time name="dav">   25.73   25.77</time>
   <time name="total">   79.99   80.10</time>
   <energy>
    <i name="alphaZ">     27.99422720 </i>
    <i name="ewald">   8261.38998914 </i>
    <i name="hartreedc"> -10502.63653386 </i>
    <i name="XCdc">     30.80476711 </i>
    <i name="pawpsdc">   1256.16030883 </i>
    <i name="pawaedc">  -1167.58619327 </i>
    <i name="eentropy">      0.00000000 </i>
    <i name="bandstr">   -465.48385371 </i>
    <i name="atom">   2503.28425743 </i>
    <i name="e_fr_energy">    -56.07303112 </i>
    <i name="e_wo_entrp">    -56.07303112 </i>
    <i name="e_0_energy">    -56.07303112 </i>
   </energy>
  </scstep>
  <scstep>
   <time name="dav">   29.49   29.68</time>
   <time name="total">   83.74   84.07</time>
   <energy>
    <i name="e_fr_energy">    -56.07325104 </i>
    <i name="e_wo_entrp">    -56.07325104 </i>
    <i name="e_0_energy">    -56.07325104 </i>
   </energy>
  </scstep>
  <scstep>
   <time name="dav">   22.03   22.15</time>
   <time name="total">   74.23   74.54</time>
   <energy>
    <i name="alphaZ">     27.99422720 </i>
    <i name="ewald">   8261.38998914 </i>
    <i name="hartreedc"> -10502.58062019 </i>
    <i name="XCdc">     30.79513093 </i>
    <i name="pawpsdc">   1256.16617111 </i>
    <i name="pawaedc">  -1167.58557906 </i>
    <i name="eentropy">      0.00000000 </i>
    <i name="bandstr">   -465.53683219 </i>
    <i name="atom">   2503.28425743 </i>
    <i name="e_fr_energy">    -56.07325562 </i>
    <i name="e_wo_entrp">    -56.07325562 </i>
    <i name="e_0_energy">    -56.07325562 </i>
   </energy>
  </scstep>
  <structure>
   <crystal>
    <varray name="basis" >
     <v>       5.89741437       0.00000008       0.00000000 </v>
     <v>       2.94870684       5.10731050       0.00000000 </v>
     <v>      -0.00000000       0.00000000      21.43716357 </v>
    </varray>
    <i name="volume">    645.68578242 </i>
    <varray name="rec_basis" >
     <v>       0.16956584      -0.09789887       0.00000000 </v>
     <v>      -0.00000000       0.19579777      -0.00000000 </v>
     <v>      -0.00000000       0.00000000       0.04664796 </v>
    </varray>
   </crystal>
   <varray name="positions" >
    <v>       0.33333300       0.33333300       0.49992500 </v>
    <v>       0.66666700       0.66666700       0.50007500 </v>
    <v>       0.00000000       0.00000000       0.44788506 </v>
    <v>       0.00000000       0.00000000       0.55364538 </v>
    <v>       0.63655974       0.00026485       0.56980398 </v>
    <v>       0.00026485       0.36317641       0.56980398 </v>
    <v>       0.36317641       0.63655974       0.56980398 </v>
    <v>       0.35774950       0.99966253       0.42941106 </v>
    <v>       0.99966253       0.64258697       0.42941106 </v>
    <v>       0.64258697       0.35774950       0.42941106 </v>
   </varray>
  </structure>
  <varray name="forces" >
   <v>       0.00000000       0.00000000       0.04732302 </v>
   <v>       0.00000000       0.00000000       0.04185597 </v>
   <v>       0.00000000       0.00000000       0.76143744 </v>
   <v>       0.00000000       0.00000000      -0.51298008 </v>
   <v>       0.11074803      -0.00511098       0.07656813 </v>
   <v>      -0.05980025      -0.09335512       0.07656813 </v>
   <v>      -0.05094779       0.09846609       0.07656813 </v>
   <v>      -0.19836428       0.00862572      -0.18911358 </v>
   <v>       0.10665222       0.16747564      -0.18911358 </v>
   <v>       0.09171206      -0.17610135      -0.18911358 </v>
  </varray>
  <varray name="stress" >
   <v>       3.09019173      -0.00000065       0.00000000 </v>
   <v>       0.00000031       3.09019148       0.00000000 </v>
   <v>       0.00000000      -0.00000000      -0.54381074 </v>
  </varray>
  <energy>
   <i name="e_fr_energy">    -56.07325562 </i>
   <i name="e_wo_entrp">    -56.07325562 </i>
   <i name="e_0_energy">      0.00000000 </i>
  </energy>
  <time name="totalsc">  373.84  375.20</time>
 </calculation>
 <calculation>
  <scstep>
   <time name="dav">   23.99   24.34</time>
   <time name="total">   77.93   78.50</time>
   <energy>
    <i name="alphaZ">     27.66929960 </i>
    <i name="ewald">   8194.23253112 </i>
    <i name="hartreedc"> -10427.37158459 </i>
    <i name="XCdc">     30.33895816 </i>
    <i name="pawpsdc">   1256.25799553 </i>
    <i name="pawaedc">  -1167.68507451 </i>
    <i name="eentropy">      0.00000000 </i>
    <i name="bandstr">   -472.83646211 </i>
    <i name="atom">   2503.28425743 </i>
    <i name="e_fr_energy">    -56.11007936 </i>
    <i name="e_wo_entrp">    -56.11007936 </i>
    <i name="e_0_energy">    -56.11007936 </i>
   </energy>
  </scstep>
  <scstep>
   <time name="dav">   29.88   29.98</time>
   <time name="total">   83.58   84.16</time>
   <energy>
    <i name="e_fr_energy">    -56.11876099 </i>
    <i name="e_wo_entrp">    -56.11876099 </i>
    <i name="e_0_energy">    -56.11876099 </i>
   </energy>
  </scstep>
  <scstep>
   <time name="dav">   25.16   25.30</time>
   <time name="total">   79.23   79.51</time>
   <energy>
    <i name="e_fr_energy">    -56.11371344 </i>
    <i name="e_wo_entrp">    -56.11371344 </i>
    <i name="e_0_energy">    -56.11371344 </i>
   </energy>
  </scstep>
  <scstep>
   <time name="dav">   31.24   31.30</time>
   <time name="total">   85.31   85.66</time>
   <energy>
    <i name="e_fr_energy">    -56.11269657 </i>
    <i name="e_wo_entrp">    -56.11269657 </i>
    <i name="e_0_energy">    -56.11269657 </i>
   </energy>
  </scstep>
  <scstep>
   <time name="dav">   32.94   33.20</time>
   <time name="total">   87.01   87.60</time>
   <energy>
    <i name="e_fr_energy">    -56.11246719 </i>
    <i name="e_wo_entrp">    -56.11246719 </i>
    <i name="e_0_energy">    -56.11246719 </i>
   </energy>
  </scstep>
  <scstep>
   <time name="dav">   24.22   24.45</time>
   <time name="total">   76.28   76.69</time>
   <energy>
    <i name="alphaZ">     27.66929960 </i>
    <i name="ewald">   8194.23253112 </i>
    <i name="hartreedc"> -10432.35742832 </i>
    <i name="XCdc">     30.67528392 </i>
    <i name="pawpsdc">   1249.34370317 </i>
    <i name="pawaedc">  -1160.71240026 </i>
    <i name="eentropy">      0.00000000 </i>
    <i name="bandstr">   -468.24763637 </i>
    <i name="atom">   2503.28425743 </i>
    <i name="e_fr_energy">    -56.11238970 </i>
    <i name="e_wo_entrp">    -56.11238970 </i>
    <i name="e_0_energy">    -56.11238970 </i>
   </energy>
  </scstep>
  <structure>
   <crystal>
    <varray name="basis" >
     <v>       5.92318385       0.00000007       0.00000000 </v>
     <v>       2.96159158       5.12962751       0.00000000 </v>
     <v>      -0.00000000       0.00000000      21.50059611 </v>
    </varray>
    <i name="volume">    653.26823417 </i>
    <varray name="rec_basis" >
     <v>       0.16882812      -0.09747295       0.00000000 </v>
     <v>      -0.00000000       0.19494593      -0.00000000 </v>
     <v>      -0.00000000      -0.00000000       0.04651034 </v>
    </varray>
   </crystal>
   <varray name="positions" >
    <v>       0.33333300       0.33333300       0.49992500 </v>
    <v>       0.66666700       0.66666700       0.50007500 </v>
    <v>       0.00000000       0.00000000       0.44931867 </v>
    <v>       0.00000000       0.00000000       0.55319555 </v>
    <v>       0.63891713       0.00016396       0.56995250 </v>
    <v>       0.00016396       0.36091990       0.56995250 </v>
    <v>       0.36091990       0.63891713       0.56995250 </v>
    <v>       0.35367593       0.99976930       0.42872716 </v>
    <v>       0.99976930       0.64655376       0.42872716 </v>
    <v>       0.64655376       0.35367593       0.42872716 </v>
   </varray>
  </structure>
  <varray name="forces" >
   <v>       0.00000000      -0.00000000      -0.05924405 </v>
   <v>       0.00000000      -0.00000000      -0.07416309 </v>
   <v>       0.00000000      -0.00000000       0.28068333 </v>
   <v>       0.00000000      -0.00000000      -0.14453178 </v>
   <v>       0.02672487      -0.00047646      -0.03770900 </v>
   <v>      -0.01377506      -0.02290619      -0.03770900 </v>
   <v>      -0.01294981       0.02338265      -0.03770900 </v>
   <v>      -0.02351890       0.00487191       0.03679420 </v>
   <v>       0.01597864       0.01793201       0.03679420 </v>
   <v>       0.00754026      -0.02280392       0.03679420 </v>
  </varray>
  <varray name="stress" >
   <v>      -0.59652420      -0.00000022      -0.00000000 </v>
   <v>       0.00000028      -0.59652415      -0.00000000 </v>
   <v>       0.00000000      -0.00000000      -1.95030597 </v>
  </varray>
  <energy>
   <i name="e_fr_energy">    -56.11238970 </i>
   <i name="e_wo_entrp">    -56.11238970 </i>
   <i name="e_0_energy">      0.00000000 </i>
  </energy>
  <time name="totalsc">  625.02  628.32</time>
 </calculation>
 <calculation>
  <scstep>
   <time name="dav">   23.57   23.70</time>
   <time name="total">   77.64   77.94</time>
   <energy>
    <i name="alphaZ">     27.64322328 </i>
    <i name="ewald">   8188.83606495 </i>
    <i name="hartreedc"> -10426.38879109 </i>
    <i name="XCdc">     30.63843824 </i>
    <i name="pawpsdc">   1248.83663618 </i>
    <i name="pawaedc">  -1160.18128606 </i>
    <i name="eentropy">      0.00000000 </i>
    <i name="bandstr">   -468.78161719 </i>
    <i name="atom">   2503.28425743 </i>
    <i name="e_fr_energy">    -56.11307425 </i>
    <i name="e_wo_entrp">    -56.11307425 </i>
    <i name="e_0_energy">    -56.11307425 </i>
   </energy>
  </scstep>
  <scstep>
   <time name="dav">   29.52   29.87</time>
   <time name="total">   83.61   84.13</time>
   <energy>
    <i name="e_fr_energy">    -56.11312048 </i>
    <i name="e_wo_entrp">    -56.11312048 </i>
    <i name="e_0_energy">    -56.11312048 </i>
   </energy>
  </scstep>
  <scstep>
   <time name="dav">   23.37   23.66</time>
   <time name="total">   75.50   76.00</time>
   <energy>
    <i name="alphaZ">     27.64322328 </i>
    <i name="ewald">   8188.83606495 </i>
    <i name="hartreedc"> -10426.84982554 </i>
    <i name="XCdc">     30.66598743 </i>
    <i name="pawpsdc">   1248.17202009 </i>
    <i name="pawaedc">  -1159.50599524 </i>
    <i name="eentropy">      0.00000000 </i>
    <i name="bandstr">   -468.35887228 </i>
    <i name="atom">   2503.28425743 </i>
    <i name="e_fr_energy">    -56.11313987 </i>
    <i name="e_wo_entrp">    -56.11313987 </i>
    <i name="e_0_energy">    -56.11313987 </i>
   </energy>
  </scstep>
  <structure>
   <crystal>
    <varray name="basis" >
     <v>       5.92526953       0.00000007       0.00000000 </v>
     <v>       2.96263442       5.13143376       0.00000000 </v>
     <v>      -0.00000000       0.00000000      21.50573009 </v>
    </varray>
    <i name="volume">    653.88447316 </i>
    <varray name="rec_basis" >
     <v>       0.16876870      -0.09743864       0.00000000 </v>
     <v>      -0.00000000       0.19487731      -0.00000000 </v>
     <v>      -0.00000000      -0.00000000       0.04649924 </v>
    </varray>
   </crystal>
   <varray name="positions" >
    <v>       0.33333300       0.33333300       0.49992500 </v>
    <v>       0.66666700       0.66666700       0.50007500 </v>
    <v>       0.00000000       0.00000000       0.44943436 </v>
    <v>       0.00000000       0.00000000       0.55315925 </v>
    <v>       0.63910710       0.00015583       0.56996448 </v>
    <v>       0.00015583       0.36073806       0.56996448 </v>
    <v>       0.36073806       0.63910710       0.56996448 </v>
    <v>       0.35334767       0.99977791       0.42867197 </v>
    <v>       0.99977791       0.64687342       0.42867197 </v>
    <v>       0.64687342       0.35334767       0.42867197 </v>
   </varray>
  </structure>
  <varray name="forces" >
   <v>      -0.00000000       0.00000000      -0.07097330 </v>
   <v>      -0.00000000       0.00000000      -0.08377282 </v>
   <v>      -0.00000000       0.00000000       0.23977841 </v>
   <v>      -0.00000000       0.00000000      -0.11161769 </v>
   <v>       0.02755839      -0.00379624      -0.04455420 </v>
   <v>      -0.01706683      -0.02196814      -0.04455420 </v>
   <v>      -0.01049155       0.02576438      -0.04455420 </v>
   <v>      -0.01735741       0.00220273       0.05341600 </v>
   <v>       0.01058632       0.01393059       0.05341600 </v>
   <v>       0.00677109      -0.01613332       0.05341600 </v>
  </varray>
  <varray name="stress" >
   <v>       0.05115149      -0.00000045       0.00000000 </v>
   <v>       0.00000044       0.05115149       0.00000000 </v>
   <v>       0.00000000       0.00000000      -1.05597860 </v>
  </varray>
  <energy>
   <i name="e_fr_energy">    -56.11313987 </i>
   <i name="e_wo_entrp">    -56.11313987 </i>
   <i name="e_0_energy">      0.00000000 </i>
  </energy>
  <time name="totalsc">  372.63  374.60</time>
 </calculation>
 <calculation>
  <scstep>
   <time name="dav">   24.40   24.68</time>
   <time name="total">   78.46   78.91</time>
   <energy>
    <i name="alphaZ">     27.72496731 </i>
    <i name="ewald">   8179.41695438 </i>
    <i name="hartreedc"> -10421.22006653 </i>
    <i name="XCdc">     30.83882996 </i>
    <i name="pawpsdc">   1247.97533064 </i>
    <i name="pawaedc">  -1159.30844696 </i>
    <i name="eentropy">      0.00000000 </i>
    <i name="bandstr">   -464.82752620 </i>
    <i name="atom">   2503.28425743 </i>
    <i name="e_fr_energy">    -56.11569997 </i>
    <i name="e_wo_entrp">    -56.11569997 </i>
    <i name="e_0_energy">    -56.11569997 </i>
   </energy>
  </scstep>
  <scstep>
   <time name="dav">   25.65   25.72</time>
   <time name="total">   79.62   79.99</time>
   <energy>
    <i name="e_fr_energy">    -56.11543267 </i>
    <i name="e_wo_entrp">    -56.11543267 </i>
    <i name="e_0_energy">    -56.11543267 </i>
   </energy>
  </scstep>
  <scstep>
   <time name="dav">   30.17   30.58</time>
   <time name="total">   84.23   84.92</time>
   <energy>
    <i name="e_fr_energy">    -56.11513368 </i>
    <i name="e_wo_entrp">    -56.11513368 </i>
    <i name="e_0_energy">    -56.11513368 </i>
   </energy>
  </scstep>
  <scstep>
   <time name="dav">   30.11   30.63</time>
   <time name="total">   84.11   84.86</time>
   <energy>
    <i name="e_fr_energy">    -56.11486698 </i>
    <i name="e_wo_entrp">    -56.11486698 </i>
    <i name="e_0_energy">    -56.11486698 </i>
   </energy>
  </scstep>
  <scstep>
   <time name="dav">   25.62   25.96</time>
   <time name="total">   77.66   78.31</time>
   <energy>
    <i name="alphaZ">     27.72496731 </i>
    <i name="ewald">   8179.41695438 </i>
    <i name="hartreedc"> -10419.61074113 </i>
    <i name="XCdc">     30.74909726 </i>
    <i name="pawpsdc">   1249.03302182 </i>
    <i name="pawaedc">  -1160.35522324 </i>
    <i name="eentropy">      0.00000000 </i>
    <i name="bandstr">   -466.35719745 </i>
    <i name="atom">   2503.28425743 </i>
    <i name="e_fr_energy">    -56.11486362 </i>
    <i name="e_wo_entrp">    -56.11486362 </i>
    <i name="e_0_energy">    -56.11486362 </i>
   </energy>
  </scstep>
  <structure>
   <crystal>
    <varray name="basis" >
     <v>       5.92354601       0.00000006       0.00000000 </v>
     <v>       2.96177266       5.12994114       0.00000000 </v>
     <v>      -0.00000000       0.00000000      21.45480237 </v>
    </varray>
    <i name="volume">    651.95656647 </i>
    <varray name="rec_basis" >
     <v>       0.16881780      -0.09746699       0.00000000 </v>
     <v>      -0.00000000       0.19493401      -0.00000000 </v>
     <v>      -0.00000000      -0.00000000       0.04660961 </v>
    </varray>
   </crystal>
   <varray name="positions" >
    <v>       0.33333300       0.33333300       0.49992500 </v>
    <v>       0.66666700       0.66666700       0.50007500 </v>
    <v>       0.00000000       0.00000000       0.44984978 </v>
    <v>       0.00000000       0.00000000       0.55294639 </v>
    <v>       0.63914114       0.00012877       0.56985012 </v>
    <v>       0.00012877       0.36073108       0.56985012 </v>
    <v>       0.36073108       0.63914114       0.56985012 </v>
    <v>       0.35355869       0.99978930       0.42885439 </v>
    <v>       0.99978930       0.64665102       0.42885439 </v>
    <v>       0.64665102       0.35355869       0.42885439 </v>
   </varray>
  </structure>
  <varray name="forces" >
   <v>       0.00000000       0.00000000      -0.06379360 </v>
   <v>       0.00000000       0.00000000      -0.07991133 </v>
   <v>       0.00000000       0.00000000      -0.00240908 </v>
   <v>       0.00000000       0.00000000       0.13004143 </v>
   <v>       0.03173006       0.00190276      -0.00687809 </v>
   <v>      -0.01421719      -0.02843042      -0.00687809 </v>
   <v>      -0.01751287       0.02652766      -0.00687809 </v>
   <v>      -0.03637605       0.00477242       0.01223562 </v>
   <v>       0.02232106       0.02911637       0.01223562 </v>
   <v>       0.01405499      -0.03388879       0.01223562 </v>
  </varray>
  <varray name="stress" >
   <v>       0.37835424      -0.00000036      -0.00000000 </v>
   <v>       0.00000032       0.37835421       0.00000000 </v>
   <v>       0.00000000      -0.00000000       0.31094663 </v>
  </varray>
  <energy>
   <i name="e_fr_energy">    -56.11486362 </i>
   <i name="e_wo_entrp">    -56.11486362 </i>
   <i name="e_0_energy">      0.00000000 </i>
  </energy>
  <time name="totalsc">  538.80  543.18</time>
 </calculation>
 <calculation>
  <scstep>
   <time name="dav">   24.08   24.35</time>
   <time name="total">   77.96   78.65</time>
   <energy>
    <i name="alphaZ">     27.71098097 </i>
    <i name="ewald">   8181.02528758 </i>
    <i name="hartreedc"> -10420.58865145 </i>
    <i name="XCdc">     30.72083035 </i>
    <i name="pawpsdc">   1249.28381006 </i>
    <i name="pawaedc">  -1160.62101428 </i>
    <i name="eentropy">      0.00000000 </i>
    <i name="bandstr">   -466.93052049 </i>
    <i name="atom">   2503.28425743 </i>
    <i name="e_fr_energy">    -56.11501981 </i>
    <i name="e_wo_entrp">    -56.11501981 </i>
    <i name="e_0_energy">    -56.11501981 </i>
   </energy>
  </scstep>
  <scstep>
   <time name="dav">   23.96   24.00</time>
   <time name="total">   77.94   78.29</time>
   <energy>
    <i name="e_fr_energy">    -56.11512152 </i>
    <i name="e_wo_entrp">    -56.11512152 </i>
    <i name="e_0_energy">    -56.11512152 </i>
   </energy>
  </scstep>
  <scstep>
   <time name="dav">   18.63   18.82</time>
   <time name="total">   70.60   71.08</time>
   <energy>
    <i name="alphaZ">     27.71098097 </i>
    <i name="ewald">   8181.02528758 </i>
    <i name="hartreedc"> -10420.80524955 </i>
    <i name="XCdc">     30.73462407 </i>
    <i name="pawpsdc">   1249.37182900 </i>
    <i name="pawaedc">  -1160.71745818 </i>
    <i name="eentropy">      0.00000000 </i>
    <i name="bandstr">   -466.71943591 </i>
    <i name="atom">   2503.28425743 </i>
    <i name="e_fr_energy">    -56.11516458 </i>
    <i name="e_wo_entrp">    -56.11516458 </i>
    <i name="e_0_energy">    -56.11516458 </i>
   </energy>
  </scstep>
  <structure>
   <crystal>
    <varray name="basis" >
     <v>       5.92384030       0.00000006       0.00000000 </v>
     <v>       2.96191981       5.13019601       0.00000000 </v>
     <v>      -0.00000000       0.00000000      21.46349833 </v>
    </varray>
    <i name="volume">    652.28562317 </i>
    <varray name="rec_basis" >
     <v>       0.16880941      -0.09746215       0.00000000 </v>
     <v>      -0.00000000       0.19492433      -0.00000000 </v>
     <v>      -0.00000000      -0.00000000       0.04659073 </v>
    </varray>
   </crystal>
   <varray name="positions" >
    <v>       0.33333300       0.33333300       0.49992500 </v>
    <v>       0.66666700       0.66666700       0.50007500 </v>
    <v>       0.00000000       0.00000000       0.44977867 </v>
    <v>       0.00000000       0.00000000       0.55298282 </v>
    <v>       0.63913533       0.00013340       0.56986970 </v>
    <v>       0.00013340       0.36073228       0.56986970 </v>
    <v>       0.36073228       0.63913533       0.56986970 </v>
    <v>       0.35352265       0.99978735       0.42882317 </v>
    <v>       0.99978735       0.64668900       0.42882317 </v>
    <v>       0.64668900       0.35352265       0.42882317 </v>
   </varray>
  </structure>
  <varray name="forces" >
   <v>       0.00000000      -0.00000000      -0.06350538 </v>
   <v>       0.00000000      -0.00000000      -0.07770491 </v>
   <v>       0.00000000      -0.00000000       0.03886214 </v>
   <v>      -0.00000000      -0.00000000       0.09005530 </v>
   <v>       0.03413962      -0.00152033      -0.01630328 </v>
   <v>      -0.01838645      -0.02880561      -0.01630328 </v>
   <v>      -0.01575317       0.03032594      -0.01630328 </v>
   <v>      -0.04041640       0.00260111       0.02040090 </v>
   <v>       0.02246083       0.03370107       0.02040090 </v>
   <v>       0.01795557      -0.03630219       0.02040090 </v>
  </varray>
  <varray name="stress" >
   <v>      -0.01416428      -0.00000023       0.00000000 </v>
   <v>       0.00000023      -0.01416428       0.00000000 </v>
   <v>       0.00000000       0.00000000       0.03894433 </v>
  </varray>
  <energy>
   <i name="e_fr_energy">    -56.11516458 </i>
   <i name="e_wo_entrp">    -56.11516458 </i>
   <i name="e_0_energy">      0.00000000 </i>
  </energy>
  <time name="totalsc">  359.44  361.74</time>
  <eigenvalues>
   <array>
    <dimension dim="1">band</dimension>
    <dimension dim="2">kpoint</dimension>
    <dimension dim="3">spin</dimension>
    <field>eigene</field>
    <field>occ</field>
    <set>
     <set comment="spin 1">
      <set comment="kpoint 1">
       <r>  -17.9589    1.0000 </r>
       <r>  -16.5040    1.0000 </r>
       <r>  -15.4515    1.0000 </r>
       <r>  -15.4514    1.0000 </r>
       <r>  -15.0508    1.0000 </r>
       <r>  -15.0507    1.0000 </r>
       <r>  -12.7558    1.0000 </r>
       <r>   -9.8204    1.0000 </r>
       <r>   -8.7145    1.0000 </r>
       <r>   -8.7145    1.0000 </r>
       <r>   -8.3758    1.0000 </r>
       <r>   -7.8302    1.0000 </r>
       <r>   -7.8302    1.0000 </r>
       <r>   -7.5187    1.0000 </r>
       <r>   -6.1900    1.0000 </r>
       <r>   -5.7549    1.0000 </r>
       <r>   -5.7548    1.0000 </r>
       <r>   -5.5858    1.0000 </r>
       <r>   -5.5858    1.0000 </r>
       <r>   -5.2657    1.0000 </r>
       <r>   -4.9081    1.0000 </r>
       <r>   -4.7927    1.0000 </r>
       <r>   -4.7926    1.0000 </r>
       <r>   -3.8636    1.0000 </r>
       <r>   -3.8636    1.0000 </r>
       <r>   -3.6089    1.0000 </r>
       <r>   -3.6089    1.0000 </r>
       <r>   -3.3056    1.0000 </r>
       <r>   -3.2019    1.0000 </r>
       <r>   -3.1693    1.0000 </r>
       <r>   -3.1692    1.0000 </r>
       <r>   -1.3104    0.0000 </r>
       <r>   -1.3104    0.0000 </r>
       <r>   -0.9896    0.0000 </r>
       <r>   -0.9353    0.0000 </r>
       <r>   -0.9353    0.0000 </r>
       <r>    0.6923    0.0000 </r>
       <r>    0.8505    0.0000 </r>
       <r>    0.8506    0.0000 </r>
       <r>    1.8347    0.0000 </r>
       <r>    2.1087    0.0000 </r>
       <r>    2.2794    0.0000 </r>
       <r>    2.6495    0.0000 </r>
       <r>    2.8848    0.0000 </r>
       <r>    2.8848    0.0000 </r>
       <r>    3.4264    0.0000 </r>
       <r>    3.5586    0.0000 </r>
       <r>    3.8667    0.0000 </r>
      </set>
      <set comment="kpoint 2">
       <r>  -17.8387    1.0000 </r>
       <r>  -16.4060    1.0000 </r>
       <r>  -15.6941    1.0000 </r>
       <r>  -15.5265    1.0000 </r>
       <r>  -15.1723    1.0000 </r>
       <r>  -15.1278    1.0000 </r>
[...]
        <r>  0.0070  0.0001  0.0015  0.0054  0.0000  0.0000  0.0000  0.0000  0.0000 </r>
        <r>  0.0037  0.0028  0.0030  0.0009  0.0000  0.0000  0.0000  0.0000  0.0000 </r>
        <r>  0.0071  0.0043  0.0015  0.0012  0.0000  0.0000  0.0000  0.0000  0.0000 </r>
       </set>
       <set comment="band 30">
        <r>  0.0001  0.0002  0.0001  0.0003  0.1685  0.0060  0.0282  0.0325  0.1930 </r>
        <r>  0.0001  0.0004  0.0001  0.0001  0.1037  0.0244  0.0275  0.0136  0.2588 </r>
        <r>  0.0000  0.0000  0.0000  0.0001  0.0000  0.0000  0.0000  0.0000  0.0000 </r>
        <r>  0.0000  0.0008  0.0000  0.0023  0.0000  0.0000  0.0000  0.0000  0.0000 </r>
        <r>  0.0001  0.0026  0.0006  0.0009  0.0000  0.0000  0.0000  0.0000  0.0000 </r>
        <r>  0.0000  0.0009  0.0000  0.0028  0.0000  0.0000  0.0000  0.0000  0.0000 </r>
        <r>  0.0000  0.0018  0.0006  0.0017  0.0000  0.0000  0.0000  0.0000  0.0000 </r>
        <r>  0.0005  0.0067  0.0021  0.0001  0.0000  0.0000  0.0000  0.0000  0.0000 </r>
        <r>  0.0000  0.0010  0.0000  0.0029  0.0000  0.0000  0.0000  0.0000  0.0000 </r>
        <r>  0.0005  0.0011  0.0022  0.0057  0.0000  0.0000  0.0000  0.0000  0.0000 </r>
       </set>
       <set comment="band 31">
        <r>  0.0008  0.0005  0.0001  0.0005  0.0840  0.0017  0.1940  0.0228  0.0867 </r>
        <r>  0.0010  0.0006  0.0001  0.0003  0.1011  0.0188  0.2229  0.0066  0.0385 </r>
        <r>  0.0076  0.0016  0.0026  0.0006  0.0000  0.0000  0.0000  0.0000  0.0000 </r>
        <r>  0.0053  0.0041  0.0017  0.0012  0.0000  0.0000  0.0000  0.0000  0.0000 </r>
        <r>  0.0012  0.0011  0.0025  0.0093  0.0000  0.0000  0.0000  0.0000  0.0000 </r>
        <r>  0.0005  0.0021  0.0024  0.0007  0.0000  0.0000  0.0000  0.0000  0.0000 </r>
        <r>  0.0014  0.0093  0.0025  0.0010  0.0000  0.0000  0.0000  0.0000  0.0000 </r>
        <r>  0.0004  0.0014  0.0008  0.0040  0.0000  0.0000  0.0000  0.0000  0.0000 </r>
        <r>  0.0013  0.0002  0.0035  0.0001  0.0000  0.0000  0.0000  0.0000  0.0000 </r>
        <r>  0.0004  0.0020  0.0007  0.0039  0.0000  0.0000  0.0000  0.0000  0.0000 </r>
       </set>
       <set comment="band 32">
        <r>  0.0025  0.0001  0.0005  0.0003  0.1119  0.0054  0.1708  0.0017  0.1232 </r>
        <r>  0.0023  0.0002  0.0005  0.0003  0.2324  0.0015  0.1415  0.0047  0.0335 </r>
        <r>  0.0000  0.0017  0.0000  0.0049  0.0000  0.0000  0.0000  0.0000  0.0000 </r>
        <r>  0.0000  0.0034  0.0000  0.0107  0.0000  0.0000  0.0000  0.0000  0.0000 </r>
        <r>  0.0020  0.0024  0.0009  0.0010  0.0000  0.0000  0.0000  0.0000  0.0000 </r>
        <r>  0.0000  0.0004  0.0000  0.0015  0.0000  0.0000  0.0000  0.0000  0.0000 </r>
        <r>  0.0017  0.0006  0.0008  0.0028  0.0000  0.0000  0.0000  0.0000  0.0000 </r>
        <r>  0.0010  0.0039  0.0031  0.0006  0.0000  0.0000  0.0000  0.0000  0.0000 </r>
        <r>  0.0000  0.0008  0.0000  0.0024  0.0000  0.0000  0.0000  0.0000  0.0000 </r>
        <r>  0.0010  0.0016  0.0030  0.0024  0.0000  0.0000  0.0000  0.0000  0.0000 </r>
       </set>
       <set comment="band 33">
        <r>  0.0006  0.0001  0.0019  0.0002  0.0096  0.1637  0.0640  0.0590  0.0097 </r>
        <r>  0.0006  0.0001  0.0019  0.0001  0.0019  0.1600  0.0625  0.0650  0.0170 </r>
        <r>  0.0000  0.0013  0.0000  0.0041  0.0000  0.0000  0.0000  0.0000  0.0000 </r>
        <r>  0.0000  0.0039  0.0000  0.0115  0.0000  0.0000  0.0000  0.0000  0.0000 </r>
        <r>  0.0054  0.0020  0.0085  0.0111  0.0000  0.0000  0.0000  0.0000  0.0000 </r>
        <r>  0.0000  0.0012  0.0000  0.0034  0.0000  0.0000  0.0000  0.0000  0.0000 </r>
        <r>  0.0054  0.0056  0.0084  0.0075  0.0000  0.0000  0.0000  0.0000  0.0000 </r>
        <r>  0.0027  0.0036  0.0059  0.0071  0.0000  0.0000  0.0000  0.0000  0.0000 </r>
        <r>  0.0000  0.0011  0.0000  0.0034  0.0000  0.0000  0.0000  0.0000  0.0000 </r>
        <r>  0.0028  0.0037  0.0060  0.0070  0.0000  0.0000  0.0000  0.0000  0.0000 </r>
       </set>
       <set comment="band 34">
        <r>  0.0006  0.0002  0.0004  0.0004  0.0420  0.0330  0.0034  0.1066  0.0526 </r>
        <r>  0.0007  0.0004  0.0004  0.0002  0.0596  0.0917  0.0034  0.0487  0.0341 </r>
        <r>  0.0292  0.0002  0.0124  0.0001  0.0000  0.0000  0.0000  0.0000  0.0000 </r>
        <r>  0.0223  0.0050  0.0032  0.0017  0.0000  0.0000  0.0000  0.0000  0.0000 </r>
        <r>  0.0008  0.0017  0.0032  0.0123  0.0000  0.0000  0.0000  0.0000  0.0000 </r>
        <r>  0.0061  0.0148  0.0061  0.0049  0.0000  0.0000  0.0000  0.0000  0.0000 </r>
        <r>  0.0008  0.0069  0.0033  0.0073  0.0000  0.0000  0.0000  0.0000  0.0000 </r>
        <r>  0.0051  0.0008  0.0068  0.0089  0.0000  0.0000  0.0000  0.0000  0.0000 </r>
        <r>  0.0044  0.0052  0.0000  0.0018  0.0000  0.0000  0.0000  0.0000  0.0000 </r>
        <r>  0.0051  0.0046  0.0068  0.0050  0.0000  0.0000  0.0000  0.0000  0.0000 </r>
       </set>
       <set comment="band 35">
        <r>  0.0015  0.0003  0.0018  0.0002  0.0340  0.1599  0.0109  0.0474  0.0172 </r>
        <r>  0.0017  0.0003  0.0018  0.0002  0.0285  0.0565  0.0096  0.1646  0.0250 </r>
        <r>  0.0055  0.0044  0.0001  0.0016  0.0000  0.0000  0.0000  0.0000  0.0000 </r>
        <r>  0.0039  0.0140  0.0020  0.0044  0.0000  0.0000  0.0000  0.0000  0.0000 </r>
        <r>  0.0011  0.0016  0.0070  0.0024  0.0000  0.0000  0.0000  0.0000  0.0000 </r>
        <r>  0.0020  0.0401  0.0053  0.0120  0.0000  0.0000  0.0000  0.0000  0.0000 </r>
        <r>  0.0012  0.0026  0.0073  0.0026  0.0000  0.0000  0.0000  0.0000  0.0000 </r>
        <r>  0.0016  0.0088  0.0049  0.0008  0.0000  0.0000  0.0000  0.0000  0.0000 </r>
        <r>  0.0051  0.0235  0.0134  0.0091  0.0000  0.0000  0.0000  0.0000  0.0000 </r>
        <r>  0.0016  0.0044  0.0048  0.0032  0.0000  0.0000  0.0000  0.0000  0.0000 </r>
       </set>
       <set comment="band 36">
        <r>  0.0005  0.0002  0.0000  0.0001  0.0158  0.1100  0.0062  0.1793  0.0206 </r>
        <r>  0.0004  0.0001  0.0000  0.0002  0.0038  0.0624  0.0072  0.2100  0.0290 </r>
        <r>  0.0000  0.0005  0.0000  0.0010  0.0000  0.0000  0.0000  0.0000  0.0000 </r>
        <r>  0.0000  0.0005  0.0000  0.0023  0.0000  0.0000  0.0000  0.0000  0.0000 </r>
        <r>  0.0025  0.0325  0.0022  0.0005  0.0000  0.0000  0.0000  0.0000  0.0000 </r>
        <r>  0.0000  0.0043  0.0000  0.0171  0.0000  0.0000  0.0000  0.0000  0.0000 </r>
        <r>  0.0024  0.0053  0.0019  0.0266  0.0000  0.0000  0.0000  0.0000  0.0000 </r>
        <r>  0.0025  0.0221  0.0019  0.0013  0.0000  0.0000  0.0000  0.0000  0.0000 </r>
        <r>  0.0000  0.0085  0.0000  0.0214  0.0000  0.0000  0.0000  0.0000  0.0000 </r>
        <r>  0.0025  0.0027  0.0019  0.0227  0.0000  0.0000  0.0000  0.0000  0.0000 </r>
       </set>
       <set comment="band 37">
        <r>  0.0060  0.0002  0.0025  0.0010  0.0102  0.0179  0.0203  0.0258  0.0101 </r>
        <r>  0.0060  0.0004  0.0025  0.0008  0.0144  0.0330  0.0205  0.0104  0.0060 </r>
        <r>  0.0006  0.0121  0.0002  0.0041  0.0000  0.0000  0.0000  0.0000  0.0000 </r>
        <r>  0.0002  0.0716  0.0003  0.0240  0.0000  0.0000  0.0000  0.0000  0.0000 </r>
        <r>  0.0041  0.0160  0.0049  0.0106  0.0000  0.0000  0.0000  0.0000  0.0000 </r>
        <r>  0.0256  0.0378  0.0130  0.0126  0.0000  0.0000  0.0000  0.0000  0.0000 </r>
        <r>  0.0041  0.0021  0.0049  0.0243  0.0000  0.0000  0.0000  0.0000  0.0000 </r>
        <r>  0.0014  0.0034  0.0028  0.0018  0.0000  0.0000  0.0000  0.0000  0.0000 </r>
        <r>  0.0073  0.0075  0.0042  0.0025  0.0000  0.0000  0.0000  0.0000  0.0000 </r>
        <r>  0.0014  0.0006  0.0028  0.0046  0.0000  0.0000  0.0000  0.0000  0.0000 </r>
       </set>
       <set comment="band 38">
        <r>  0.0071  0.0009  0.0012  0.0010  0.0179  0.0190  0.0103  0.0404  0.0007 </r>
        <r>  0.0071  0.0014  0.0012  0.0005  0.0070  0.0577  0.0103  0.0017  0.0118 </r>
        <r>  0.0000  0.0026  0.0000  0.0079  0.0000  0.0000  0.0000  0.0000  0.0000 </r>
        <r>  0.0000  0.0226  0.0000  0.0673  0.0000  0.0000  0.0000  0.0000  0.0000 </r>
        <r>  0.0084  0.0224  0.0027  0.0509  0.0000  0.0000  0.0000  0.0000  0.0000 </r>
        <r>  0.0000  0.0109  0.0000  0.0326  0.0000  0.0000  0.0000  0.0000  0.0000 </r>
        <r>  0.0084  0.0730  0.0026  0.0003  0.0000  0.0000  0.0000  0.0000  0.0000 </r>
        <r>  0.0027  0.0123  0.0027  0.0057  0.0000  0.0000  0.0000  0.0000  0.0000 </r>
        <r>  0.0000  0.0010  0.0000  0.0031  0.0000  0.0000  0.0000  0.0000  0.0000 </r>
        <r>  0.0027  0.0145  0.0027  0.0035  0.0000  0.0000  0.0000  0.0000  0.0000 </r>
       </set>
       <set comment="band 39">
        <r>  0.0002  0.0007  0.0001  0.0017  0.0402  0.0461  0.0002  0.0318  0.0181 </r>
        <r>  0.0001  0.0016  0.0001  0.0008  0.0327  0.0544  0.0002  0.0229  0.0250 </r>
        <r>  0.0861  0.0003  0.0392  0.0001  0.0000  0.0000  0.0000  0.0000  0.0000 </r>
        <r>  0.0016  0.0012  0.0231  0.0004  0.0000  0.0000  0.0000  0.0000  0.0000 </r>
        <r>  0.0000  0.0000  0.0055  0.0115  0.0000  0.0000  0.0000  0.0000  0.0000 </r>
        <r>  0.0008  0.0053  0.0025  0.0018  0.0000  0.0000  0.0000  0.0000  0.0000 </r>
        <r>  0.0000  0.0085  0.0056  0.0031  0.0000  0.0000  0.0000  0.0000  0.0000 </r>
        <r>  0.0070  0.0018  0.0013  0.0558  0.0000  0.0000  0.0000  0.0000  0.0000 </r>
        <r>  0.0033  0.0379  0.0014  0.0127  0.0000  0.0000  0.0000  0.0000  0.0000 </r>
        <r>  0.0070  0.0338  0.0013  0.0237  0.0000  0.0000  0.0000  0.0000  0.0000 </r>
       </set>
       <set comment="band 40">
        <r>  0.0132  0.0050  0.0026  0.0008  0.0249  0.0030  0.0082  0.0112  0.0101 </r>
        <r>  0.0133  0.0024  0.0026  0.0033  0.0012  0.0130  0.0082  0.0011  0.0335 </r>
        <r>  0.0200  0.0260  0.0283  0.0086  0.0000  0.0000  0.0000  0.0000  0.0000 </r>
        <r>  0.0163  0.0108  0.0192  0.0036  0.0000  0.0000  0.0000  0.0000  0.0000 </r>
        <r>  0.0003  0.0012  0.0083  0.0012  0.0000  0.0000  0.0000  0.0000  0.0000 </r>
        <r>  0.0028  0.0024  0.0085  0.0008  0.0000  0.0000  0.0000  0.0000  0.0000 </r>
        <r>  0.0003  0.0003  0.0083  0.0022  0.0000  0.0000  0.0000  0.0000  0.0000 </r>
        <r>  0.0006  0.0022  0.0056  0.0013  0.0000  0.0000  0.0000  0.0000  0.0000 </r>
        <r>  0.0196  0.0101  0.0231  0.0034  0.0000  0.0000  0.0000  0.0000  0.0000 </r>
        <r>  0.0006  0.0006  0.0056  0.0029  0.0000  0.0000  0.0000  0.0000  0.0000 </r>
       </set>
       <set comment="band 41">
        <r>  0.0149  0.0020  0.0007  0.0032  0.0066  0.0132  0.0160  0.0143  0.0303 </r>
        <r>  0.0150  0.0041  0.0007  0.0011  0.0329  0.0057  0.0160  0.0216  0.0038 </r>
        <r>  0.0136  0.0327  0.0267  0.0110  0.0000  0.0000  0.0000  0.0000  0.0000 </r>
        <r>  0.0139  0.0100  0.0120  0.0033  0.0000  0.0000  0.0000  0.0000  0.0000 </r>
        <r>  0.0007  0.0015  0.0032  0.0013  0.0000  0.0000  0.0000  0.0000  0.0000 </r>
        <r>  0.0047  0.0039  0.0177  0.0013  0.0000  0.0000  0.0000  0.0000  0.0000 </r>
        <r>  0.0007  0.0022  0.0032  0.0007  0.0000  0.0000  0.0000  0.0000  0.0000 </r>
        <r>  0.0023  0.0030  0.0139  0.0020  0.0000  0.0000  0.0000  0.0000  0.0000 </r>
        <r>  0.0101  0.0117  0.0135  0.0039  0.0000  0.0000  0.0000  0.0000  0.0000 </r>
        <r>  0.0023  0.0022  0.0138  0.0028  0.0000  0.0000  0.0000  0.0000  0.0000 </r>
       </set>
       <set comment="band 42">
        <r>  0.0126  0.0012  0.0011  0.0001  0.0083  0.0133  0.0084  0.0116  0.0160 </r>
        <r>  0.0123  0.0004  0.0010  0.0009  0.0099  0.0065  0.0081  0.0186  0.0145 </r>
        <r>  0.0000  0.0198  0.0000  0.0594  0.0000  0.0000  0.0000  0.0000  0.0000 </r>
        <r>  0.0000  0.0060  0.0000  0.0180  0.0000  0.0000  0.0000  0.0000  0.0000 </r>
        <r>  0.0008  0.0018  0.0014  0.0060  0.0000  0.0000  0.0000  0.0000  0.0000 </r>
        <r>  0.0000  0.0021  0.0000  0.0062  0.0000  0.0000  0.0000  0.0000  0.0000 </r>
        <r>  0.0008  0.0071  0.0014  0.0007  0.0000  0.0000  0.0000  0.0000  0.0000 </r>
        <r>  0.0104  0.0106  0.0011  0.0228  0.0000  0.0000  0.0000  0.0000  0.0000 </r>
        <r>  0.0000  0.0072  0.0000  0.0217  0.0000  0.0000  0.0000  0.0000  0.0000 </r>
        <r>  0.0103  0.0328  0.0012  0.0007  0.0000  0.0000  0.0000  0.0000  0.0000 </r>
       </set>
       <set comment="band 43">
        <r>  0.0013  0.0005  0.0019  0.0037  0.0061  0.0019  0.0038  0.0011  0.0008 </r>
        <r>  0.0013  0.0022  0.0020  0.0020  0.0009  0.0020  0.0037  0.0010  0.0060 </r>
        <r>  0.0075  0.0005  0.0042  0.0002  0.0000  0.0000  0.0000  0.0000  0.0000 </r>
        <r>  0.0009  0.0022  0.0073  0.0007  0.0000  0.0000  0.0000  0.0000  0.0000 </r>
        <r>  0.0006  0.0008  0.0032  0.0029  0.0000  0.0000  0.0000  0.0000  0.0000 </r>
        <r>  0.0029  0.0021  0.0034  0.0007  0.0000  0.0000  0.0000  0.0000  0.0000 </r>
        <r>  0.0006  0.0012  0.0032  0.0024  0.0000  0.0000  0.0000  0.0000  0.0000 </r>
        <r>  0.0003  0.0001  0.0027  0.0010  0.0000  0.0000  0.0000  0.0000  0.0000 </r>
        <r>  0.0017  0.0026  0.0034  0.0008  0.0000  0.0000  0.0000  0.0000  0.0000 </r>
        <r>  0.0003  0.0005  0.0027  0.0006  0.0000  0.0000  0.0000  0.0000  0.0000 </r>
       </set>
       <set comment="band 44">
        <r>  0.0038  0.0013  0.0027  0.0014  0.0025  0.0013  0.0011  0.0012  0.0026 </r>
        <r>  0.0038  0.0023  0.0027  0.0003  0.0019  0.0013  0.0011  0.0012  0.0032 </r>
        <r>  0.0000  0.0016  0.0000  0.0048  0.0000  0.0000  0.0000  0.0000  0.0000 </r>
        <r>  0.0000  0.0005  0.0000  0.0014  0.0000  0.0000  0.0000  0.0000  0.0000 </r>
        <r>  0.0030  0.0012  0.0118  0.0013  0.0000  0.0000  0.0000  0.0000  0.0000 </r>
        <r>  0.0000  0.0009  0.0000  0.0027  0.0000  0.0000  0.0000  0.0000  0.0000 </r>
        <r>  0.0030  0.0023  0.0117  0.0002  0.0000  0.0000  0.0000  0.0000  0.0000 </r>
        <r>  0.0011  0.0005  0.0015  0.0027  0.0000  0.0000  0.0000  0.0000  0.0000 </r>
        <r>  0.0000  0.0005  0.0000  0.0015  0.0000  0.0000  0.0000  0.0000  0.0000 </r>
        <r>  0.0011  0.0027  0.0015  0.0005  0.0000  0.0000  0.0000  0.0000  0.0000 </r>
       </set>
       <set comment="band 45">
        <r>  0.0046  0.0005  0.0140  0.0001  0.0043  0.0004  0.0069  0.0009  0.0152 </r>
        <r>  0.0045  0.0002  0.0140  0.0005  0.0081  0.0012  0.0070  0.0000  0.0112 </r>
        <r>  0.0016  0.0046  0.0035  0.0016  0.0000  0.0000  0.0000  0.0000  0.0000 </r>
        <r>  0.0001  0.0009  0.0002  0.0003  0.0000  0.0000  0.0000  0.0000  0.0000 </r>
        <r>  0.0003  0.0008  0.0003  0.0005  0.0000  0.0000  0.0000  0.0000  0.0000 </r>
        <r>  0.0011  0.0006  0.0033  0.0002  0.0000  0.0000  0.0000  0.0000  0.0000 </r>
        <r>  0.0003  0.0002  0.0003  0.0011  0.0000  0.0000  0.0000  0.0000  0.0000 </r>
        <r>  0.0006  0.0021  0.0021  0.0004  0.0000  0.0000  0.0000  0.0000  0.0000 </r>
        <r>  0.0012  0.0026  0.0068  0.0009  0.0000  0.0000  0.0000  0.0000  0.0000 </r>
        <r>  0.0006  0.0004  0.0022  0.0020  0.0000  0.0000  0.0000  0.0000  0.0000 </r>
       </set>
       <set comment="band 46">
        <r>  0.0003  0.0013  0.0018  0.0002  0.0014  0.0003  0.0035  0.0000  0.0036 </r>
        <r>  0.0003  0.0005  0.0018  0.0009  0.0027  0.0002  0.0036  0.0002  0.0023 </r>
        <r>  0.0000  0.0011  0.0000  0.0034  0.0000  0.0000  0.0000  0.0000  0.0000 </r>
        <r>  0.0000  0.0004  0.0000  0.0011  0.0000  0.0000  0.0000  0.0000  0.0000 </r>
        <r>  0.0003  0.0000  0.0000  0.0011  0.0000  0.0000  0.0000  0.0000  0.0000 </r>
        <r>  0.0000  0.0001  0.0000  0.0004  0.0000  0.0000  0.0000  0.0000  0.0000 </r>
        <r>  0.0003  0.0007  0.0000  0.0004  0.0000  0.0000  0.0000  0.0000  0.0000 </r>
        <r>  0.0015  0.0020  0.0096  0.0025  0.0000  0.0000  0.0000  0.0000  0.0000 </r>
        <r>  0.0000  0.0008  0.0000  0.0022  0.0000  0.0000  0.0000  0.0000  0.0000 </r>
        <r>  0.0015  0.0043  0.0097  0.0002  0.0000  0.0000  0.0000  0.0000  0.0000 </r>
       </set>
       <set comment="band 47">
        <r>  0.0396  0.0019  0.0011  0.0024  0.0001  0.0012  0.0012  0.0007  0.0010 </r>
        <r>  0.0397  0.0021  0.0011  0.0022  0.0009  0.0012  0.0012  0.0007  0.0002 </r>
        <r>  0.0008  0.0067  0.0051  0.0022  0.0000  0.0000  0.0000  0.0000  0.0000 </r>
        <r>  0.0008  0.0096  0.0052  0.0032  0.0000  0.0000  0.0000  0.0000  0.0000 </r>
        <r>  0.0006  0.0017  0.0053  0.0012  0.0000  0.0000  0.0000  0.0000  0.0000 </r>
        <r>  0.0003  0.0025  0.0104  0.0008  0.0000  0.0000  0.0000  0.0000  0.0000 </r>
        <r>  0.0006  0.0002  0.0053  0.0028  0.0000  0.0000  0.0000  0.0000  0.0000 </r>
        <r>  0.0005  0.0022  0.0036  0.0003  0.0000  0.0000  0.0000  0.0000  0.0000 </r>
        <r>  0.0006  0.0008  0.0127  0.0003  0.0000  0.0000  0.0000  0.0000  0.0000 </r>
        <r>  0.0005  0.0001  0.0035  0.0024  0.0000  0.0000  0.0000  0.0000  0.0000 </r>
       </set>
       <set comment="band 48">
        <r>  0.0026  0.0027  0.0113  0.0002  0.0035  0.0004  0.0013  0.0002  0.0010 </r>
        <r>  0.0026  0.0006  0.0113  0.0024  0.0002  0.0005  0.0013  0.0001  0.0044 </r>
        <r>  0.0007  0.0005  0.0080  0.0002  0.0000  0.0000  0.0000  0.0000  0.0000 </r>
        <r>  0.0026  0.0028  0.0054  0.0010  0.0000  0.0000  0.0000  0.0000  0.0000 </r>
        <r>  0.0003  0.0002  0.0018  0.0009  0.0000  0.0000  0.0000  0.0000  0.0000 </r>
        <r>  0.0002  0.0009  0.0043  0.0003  0.0000  0.0000  0.0000  0.0000  0.0000 </r>
        <r>  0.0003  0.0003  0.0018  0.0007  0.0000  0.0000  0.0000  0.0000  0.0000 </r>
        <r>  0.0001  0.0001  0.0009  0.0019  0.0000  0.0000  0.0000  0.0000  0.0000 </r>
        <r>  0.0025  0.0002  0.0049  0.0001  0.0000  0.0000  0.0000  0.0000  0.0000 </r>
        <r>  0.0001  0.0017  0.0009  0.0003  0.0000  0.0000  0.0000  0.0000  0.0000 </r>
       </set>
      </set>
     </set>
    </set>
   </array>
  </projected>
 </calculation>
 <structure name="finalpos" >
  <crystal>
   <varray name="basis" >
    <v>       5.92384030       0.00000006       0.00000000 </v>
    <v>       2.96191981       5.13019601       0.00000000 </v>
    <v>      -0.00000000       0.00000000      21.46349833 </v>
   </varray>
   <i name="volume">    652.28562317 </i>
   <varray name="rec_basis" >
    <v>       0.16880941      -0.09746215       0.00000000 </v>
    <v>      -0.00000000       0.19492433      -0.00000000 </v>
    <v>      -0.00000000      -0.00000000       0.04659073 </v>
   </varray>
  </crystal>
  <varray name="positions" >
   <v>       0.33333300       0.33333300       0.49992500 </v>
   <v>       0.66666700       0.66666700       0.50007500 </v>
   <v>       0.00000000       0.00000000       0.44977867 </v>
   <v>       0.00000000       0.00000000       0.55298282 </v>
   <v>       0.63913533       0.00013340       0.56986970 </v>
   <v>       0.00013340       0.36073228       0.56986970 </v>
   <v>       0.36073228       0.63913533       0.56986970 </v>
   <v>       0.35352265       0.99978735       0.42882317 </v>
   <v>       0.99978735       0.64668900       0.42882317 </v>
   <v>       0.64668900       0.35352265       0.42882317 </v>
  </varray>
  <varray name="selective"  type="logical" >
   <v type="logical" >  F  F  F </v>
   <v type="logical" >  F  F  F </v>
   <v type="logical" >  T  T  T </v>
   <v type="logical" >  T  T  T </v>
   <v type="logical" >  T  T  T </v>
   <v type="logical" >  T  T  T </v>
   <v type="logical" >  T  T  T </v>
   <v type="logical" >  T  T  T </v>
   <v type="logical" >  T  T  T </v>
   <v type="logical" >  T  T  T </v>
  </varray>
  <nose>
   <v>      -3.00000000       0.00000000       0.00010000       0.00010000 </v>
  </nose>
 </structure>
</modeling>
