unknown system                          
           1
     6.907777   -0.000000    0.000000
     3.453888    5.982310    0.000000
     0.000000    0.000000   23.444588
   Cr   Si   P    S 
   2   1   1   6
Direct configuration=     1
   0.33333300  0.33333300  0.49992500
   0.66666700  0.66666700  0.50007500
   0.00000000  0.00000000  0.44821600
   0.00000000  0.00000000  0.55178400
   0.62635700  0.00042000  0.57375200
   0.00042000  0.37322400  0.57375200
   0.37322400  0.62635700  0.57375200
   0.37364300  0.99958000  0.42624800
   0.99958000  0.62677600  0.42624800
   0.62677600  0.37364300  0.42624800
unknown system                          
           1
     5.959518    0.000000    0.000000
     2.979758    5.161094    0.000000
    -0.000000    0.000000   21.320931
   Cr   Si   P    S 
   2   1   1   6
Direct configuration=     2
   0.33333300  0.33333300  0.49992500
   0.66666700  0.66666700  0.50007500
   0.00000000 -0.00000000  0.44852819
   0.00000000  0.00000000  0.55194524
   0.63282993  0.00039236  0.57002907
   0.00039236  0.36677871  0.57002907
   0.36677871  0.63282993  0.57002907
   0.36398757  0.99960020  0.42987672
   0.99960020  0.63641123  0.42987672
   0.63641123  0.36398757  0.42987672
unknown system                          
           1
     5.920242    0.000000    0.000000
     2.960121    5.127080    0.000000
    -0.000000    0.000000   21.232972
   Cr   Si   P    S 
   2   1   1   6
Direct configuration=     3
   0.33333300  0.33333300  0.49992500
   0.66666700  0.66666700  0.50007500
   0.00000000 -0.00000000  0.44854240
   0.00000000 -0.00000000  0.55195258
   0.63314068  0.00039104  0.56985951
   0.00039104  0.36646928  0.56985951
   0.36646928  0.63314068  0.56985951
   0.36352402  0.99960117  0.43004198
   0.99960117  0.63687381  0.43004198
   0.63687381  0.36352402  0.43004198
unknown system                          
           1
     5.895803    0.000000    0.000000
     2.947901    5.105915    0.000000
    -0.000000    0.000000   21.451578
   Cr   Si   P    S 
   2   1   1   6
Direct configuration=     4
   0.33333300  0.33333300  0.49992500
   0.66666700  0.66666700  0.50007500
   0.00000000  0.00000000  0.44783917
   0.00000000  0.00000000  0.55376358
   0.63680217  0.00025590  0.56980010
   0.00025590  0.36294293  0.56980010
   0.36294293  0.63680217  0.56980010
   0.35734005  0.99966688  0.42936701
   0.99966688  0.64299206  0.42936701
   0.64299206  0.35734005  0.42936701
unknown system                          
           1
     5.897414    0.000000    0.000000
     2.948707    5.107310    0.000000
    -0.000000    0.000000   21.437164
   Cr   Si   P    S 
   2   1   1   6
Direct configuration=     5
   0.33333300  0.33333300  0.49992500
   0.66666700  0.66666700  0.50007500
   0.00000000  0.00000000  0.44788506
   0.00000000  0.00000000  0.55364538
   0.63655974  0.00026485  0.56980398
   0.00026485  0.36317641  0.56980398
   0.36317641  0.63655974  0.56980398
   0.35774950  0.99966253  0.42941106
   0.99966253  0.64258697  0.42941106
   0.64258697  0.35774950  0.42941106
unknown system                          
           1
     5.923184    0.000000    0.000000
     2.961592    5.129628    0.000000
    -0.000000    0.000000   21.500596
   Cr   Si   P    S 
   2   1   1   6
Direct configuration=     6
   0.33333300  0.33333300  0.49992500
   0.66666700  0.66666700  0.50007500
   0.00000000  0.00000000  0.44931867
   0.00000000  0.00000000  0.55319555
   0.63891713  0.00016396  0.56995250
   0.00016396  0.36091990  0.56995250
   0.36091990  0.63891713  0.56995250
   0.35367593  0.99976930  0.42872716
   0.99976930  0.64655376  0.42872716
   0.64655376  0.35367593  0.42872716
unknown system                          
           1
     5.925270    0.000000    0.000000
     2.962634    5.131434    0.000000
    -0.000000    0.000000   21.505730
   Cr   Si   P    S 
   2   1   1   6
Direct configuration=     7
   0.33333300  0.33333300  0.49992500
   0.66666700  0.66666700  0.50007500
   0.00000000  0.00000000  0.44943436
   0.00000000  0.00000000  0.55315925
   0.63910710  0.00015583  0.56996448
   0.00015583  0.36073806  0.56996448
   0.36073806  0.63910710  0.56996448
   0.35334767  0.99977791  0.42867197
   0.99977791  0.64687342  0.42867197
   0.64687342  0.35334767  0.42867197
unknown system                          
           1
     5.923546    0.000000    0.000000
     2.961773    5.129941    0.000000
    -0.000000    0.000000   21.454802
   Cr   Si   P    S 
   2   1   1   6
Direct configuration=     8
   0.33333300  0.33333300  0.49992500
   0.66666700  0.66666700  0.50007500
   0.00000000  0.00000000  0.44984978
   0.00000000  0.00000000  0.55294639
   0.63914114  0.00012877  0.56985012
   0.00012877  0.36073108  0.56985012
   0.36073108  0.63914114  0.56985012
   0.35355869  0.99978930  0.42885439
   0.99978930  0.64665102  0.42885439
   0.64665102  0.35355869  0.42885439
unknown system                          
           1
     5.923840    0.000000    0.000000
     2.961920    5.130196    0.000000
    -0.000000    0.000000   21.463498
   Cr   Si   P    S 
   2   1   1   6
Direct configuration=     9
   0.33333300  0.33333300  0.49992500
   0.66666700  0.66666700  0.50007500
   0.00000000  0.00000000  0.44977867
   0.00000000  0.00000000  0.55298282
   0.63913533  0.00013340  0.56986970
   0.00013340  0.36073228  0.56986970
   0.36073228  0.63913533  0.56986970
   0.35352265  0.99978735  0.42882317
   0.99978735  0.64668900  0.42882317
   0.64668900  0.35352265  0.42882317
