 vasp.5.4.4.18Apr17-6-g9f103f2a35 (build May  1 2020 15:48:39) complex           
 executed on             LinuxGNU date 2020.06.28  21:24:23
 running on   16 total cores
 distrk:  each k-point on   16 cores,    1 groups
 distr:  one band on NCORES_PER_BAND=   1 cores,   16 groups


--------------------------------------------------------------------------------------------------------


 INCAR:
 POTCAR:   PAW_PBE Co 06Sep2000                   
 POTCAR:   PAW_PBE Ge 05Jan2001                   
 POTCAR:    PAW_PBE P 17Jan2003                   
 POTCAR:   PAW_PBE Se 06Sep2000                   

 ----------------------------------------------------------------------------- 
|                                                                             |
|           W    W    AA    RRRRR   N    N  II  N    N   GGGG   !!!           |
|           W    W   A  A   R    R  NN   N  II  NN   N  G    G  !!!           |
|           W    W  A    A  R    R  N N  N  II  N N  N  G       !!!           |
|           W WW W  AAAAAA  RRRRR   N  N N  II  N  N N  G  GGG   !            |
|           WW  WW  A    A  R   R   N   NN  II  N   NN  G    G                |
|           W    W  A    A  R    R  N    N  II  N    N   GGGG   !!!           |
|                                                                             |
|      For optimal performance we recommend to set                            |
|        NCORE= 4 - approx SQRT( number of cores)                             |
|      NCORE specifies how many cores store one orbital (NPAR=cpu/NCORE).     |
|      This setting can  greatly improve the performance of VASP for DFT.     |
|      The default,   NCORE=1            might be grossly inefficient         |
|      on modern multi-core architectures or massively parallel machines.     |
|      Do your own testing !!!!                                               |
|      Unfortunately you need to use the default for GW and RPA calculations. |
|      (for HF NCORE is supported but not extensively tested yet)             |
|                                                                             |
 ----------------------------------------------------------------------------- 


 ----------------------------------------------------------------------------- 
|                                                                             |
|  ADVICE TO THIS USER RUNNING 'VASP/VAMP'   (HEAR YOUR MASTER'S VOICE ...):  |
|                                                                             |
|      You have switched on vdW-DFT.                                          |
|      This routine was written and supplied by Jiri Klimes.                  |
|      We recommed that you carefully read and cite the following             |
|      publication                                                            |
|      J. Klimes, D.R. Bowler, A. Michelides                                  |
|        J. Phys.: Cond Matt. 22 022201 (2010)                                |
|      J. Klimes, D.R. Bowler, A. Michelides                                  |
|        Phys. Rev. B. 83, 195131 (2011)                                      |
|      and references therein.                                                |
|                                                                             |
 ----------------------------------------------------------------------------- 

 POTCAR:   PAW_PBE Co 06Sep2000                   
   VRHFIN =Co: d8 s1                                                            
   LEXCH  = PE                                                                  
   EATOM  =   813.5563 eV,   59.7947 Ry                                         
                                                                                
   TITEL  = PAW_PBE Co 06Sep2000                                                
   LULTRA =        F    use ultrasoft PP ?                                      
   IUNSCR =        1    unscreen: 0-lin 1-nonlin 2-no                           
   RPACOR =    2.000    partial core radius                                     
   POMASS =   58.933; ZVAL   =    9.000    mass and valenz                      
   RCORE  =    2.300    outmost cutoff radius                                   
   RWIGS  =    2.460; RWIGS  =    1.302    wigner-seitz radius (au A)           
   ENMAX  =  267.969; ENMIN  =  200.977 eV                                      
   RCLOC  =    1.697    cutoff for local pot                                    
   LCOR   =        T    correct aug charges                                     
   LPAW   =        T    paw PP                                                  
   EAUG   =  477.818                                                            
   DEXC   =    -.016                                                            
   RMAX   =    2.817    core radius for proj-oper                               
   RAUG   =    1.300    factor for augmentation sphere                          
   RDEP   =    2.393    radius for radial grids                                 
   QCUT   =   -4.438; QGAM   =    8.876    optimization parameters              
                                                                                
   Description                                                                  
     l     E      TYP  RCUT    TYP  RCUT                                        
     2   .000     23  2.300                                                     
     2   .000     23  2.300                                                     
     0   .000     23  2.300                                                     
     0   .000     23  2.300                                                     
     1  -.200     23  2.300                                                     
     1   .000     23  2.300                                                     
     3   .000      7   .000                                                     
  local pseudopotential read in
  partial core-charges read in
  atomic valenz-charges read in
  non local Contribution for L=           2  read in
    real space projection operators read in
  non local Contribution for L=           2  read in
    real space projection operators read in
  non local Contribution for L=           0  read in
    real space projection operators read in
  non local Contribution for L=           0  read in
    real space projection operators read in
  non local Contribution for L=           1  read in
    real space projection operators read in
  non local Contribution for L=           1  read in
    real space projection operators read in
    PAW grid and wavefunctions read in

   number of l-projection  operators is LMAX  =           6
   number of lm-projection operators is LMMAX =          18

 POTCAR:   PAW_PBE Ge 05Jan2001                   
   VRHFIN =Ge: s2p2                                                             
   LEXCH  = PE                                                                  
   EATOM  =   104.9960 eV,    7.7170 Ry                                         
                                                                                
   TITEL  = PAW_PBE Ge 05Jan2001                                                
   LULTRA =        F    use ultrasoft PP ?                                      
   IUNSCR =        1    unscreen: 0-lin 1-nonlin 2-no                           
   RPACOR =    2.170    partial core radius                                     
   POMASS =   72.610; ZVAL   =    4.000    mass and valenz                      
   RCORE  =    2.300    outmost cutoff radius                                   
   RWIGS  =    2.300; RWIGS  =    1.217    wigner-seitz radius (au A)           
   ENMAX  =  173.807; ENMIN  =  130.355 eV                                      
   ICORE  =        3    local potential                                         
   LCOR   =        T    correct aug charges                                     
   LPAW   =        T    paw PP                                                  
   EAUG   =  385.843                                                            
   DEXC   =    -.138                                                            
   RMAX   =    3.497    core radius for proj-oper                               
   RAUG   =    1.300    factor for augmentation sphere                          
   RDEP   =    2.318    radius for radial grids                                 
   QCUT   =   -3.574; QGAM   =    7.148    optimization parameters              
                                                                                
   Description                                                                  
     l     E      TYP  RCUT    TYP  RCUT                                        
     0   .000     23  2.300                                                     
     0   .000     23  2.300                                                     
     1   .000     23  2.300                                                     
     1   .000     23  2.300                                                     
     2   .000     23  2.300                                                     
     3  -.100      7  2.300                                                     
  local pseudopotential read in
  partial core-charges read in
  atomic valenz-charges read in
  non local Contribution for L=           0  read in
    real space projection operators read in
  non local Contribution for L=           0  read in
    real space projection operators read in
  non local Contribution for L=           1  read in
    real space projection operators read in
  non local Contribution for L=           1  read in
    real space projection operators read in
  non local Contribution for L=           2  read in
    real space projection operators read in
    PAW grid and wavefunctions read in

   number of l-projection  operators is LMAX  =           5
   number of lm-projection operators is LMMAX =          13

 POTCAR:    PAW_PBE P 17Jan2003                   
   VRHFIN =P : s2p3                                                             
   LEXCH  = PE                                                                  
   EATOM  =   176.0430 eV,   12.9388 Ry                                         
                                                                                
   TITEL  = PAW_PBE P 17Jan2003                                                 
   LULTRA =        F    use ultrasoft PP ?                                      
   IUNSCR =        1    unscreen: 0-lin 1-nonlin 2-no                           
   RPACOR =    1.500    partial core radius                                     
   POMASS =   30.974; ZVAL   =    5.000    mass and valenz                      
   RCORE  =    1.900    outmost cutoff radius                                   
   RWIGS  =    2.330; RWIGS  =    1.233    wigner-seitz radius (au A)           
   ENMAX  =  270.000; ENMIN  =  191.280 eV                                      
   ICORE  =        2    local potential                                         
   LCOR   =        T    correct aug charges                                     
   LPAW   =        T    paw PP                                                  
   EAUG   =  342.924                                                            
   DEXC   =    -.002                                                            
   RMAX   =    2.887    core radius for proj-oper                               
   RAUG   =    1.300    factor for augmentation sphere                          
   RDEP   =    1.931    radius for radial grids                                 
   QCUT   =   -4.330; QGAM   =    8.659    optimization parameters              
                                                                                
   Description                                                                  
     l     E      TYP  RCUT    TYP  RCUT                                        
     0   .000     23  1.900                                                     
     0   .000     23  1.900                                                     
     1   .000     23  1.900                                                     
     1   .000     23  1.900                                                     
     2   .000     23  1.900                                                     
  local pseudopotential read in
  partial core-charges read in
  atomic valenz-charges read in
  non local Contribution for L=           0  read in
    real space projection operators read in
  non local Contribution for L=           0  read in
    real space projection operators read in
  non local Contribution for L=           1  read in
    real space projection operators read in
  non local Contribution for L=           1  read in
    real space projection operators read in
    PAW grid and wavefunctions read in

   number of l-projection  operators is LMAX  =           4
   number of lm-projection operators is LMMAX =           8

 POTCAR:   PAW_PBE Se 06Sep2000                   
   VRHFIN =Se: s2p4                                                             
   LEXCH  = PE                                                                  
   EATOM  =   256.9644 eV,   18.8864 Ry                                         
                                                                                
   TITEL  = PAW_PBE Se 06Sep2000                                                
   LULTRA =        F    use ultrasoft PP ?                                      
   IUNSCR =        1    unscreen: 0-lin 1-nonlin 2-no                           
   RPACOR =    1.900    partial core radius                                     
   POMASS =   78.960; ZVAL   =    6.000    mass and valenz                      
   RCORE  =    2.100    outmost cutoff radius                                   
   RWIGS  =    2.200; RWIGS  =    1.164    wigner-seitz radius (au A)           
   ENMAX  =  211.534; ENMIN  =  158.651 eV                                      
   ICORE  =        3    local potential                                         
   LCOR   =        T    correct aug charges                                     
   LPAW   =        T    paw PP                                                  
   EAUG   =  446.842                                                            
   DEXC   =    -.031                                                            
   RMAX   =    3.170    core radius for proj-oper                               
   RAUG   =    1.300    factor for augmentation sphere                          
   RDEP   =    2.177    radius for radial grids                                 
   QCUT   =   -3.943; QGAM   =    7.886    optimization parameters              
                                                                                
   Description                                                                  
     l     E      TYP  RCUT    TYP  RCUT                                        
     0   .000     23  2.100                                                     
     0   .000     23  2.100                                                     
     1   .000     23  2.100                                                     
     1   .000     23  2.100                                                     
     2   .000     23  2.100                                                     
     3  -.100      7  2.100                                                     
  local pseudopotential read in
  partial core-charges read in
  atomic valenz-charges read in
  non local Contribution for L=           0  read in
    real space projection operators read in
  non local Contribution for L=           0  read in
    real space projection operators read in
  non local Contribution for L=           1  read in
    real space projection operators read in
  non local Contribution for L=           1  read in
    real space projection operators read in
  non local Contribution for L=           2  read in
    real space projection operators read in
    PAW grid and wavefunctions read in

   number of l-projection  operators is LMAX  =           5
   number of lm-projection operators is LMMAX =          13

 Optimization of the real space projectors (new method)

 maximal supplied QI-value         = 16.25
 optimisation between [QCUT,QGAM] = [ 11.54, 23.24] = [ 37.28,151.24] Ry 
 Optimized for a Real-space Cutoff    1.53 Angstroem

   l    n(q)    QCUT    max X(q) W(low)/X(q) W(high)/X(q)  e(spline) 
   2     10    11.539     4.599    0.83E-05    0.15E-04    0.45E-07
   2     10    11.539    18.158    0.10E-03    0.14E-03    0.24E-06
   0     11    11.539    15.740    0.19E-04    0.12E-05    0.17E-07
   0     11    11.539    47.662    0.48E-04    0.15E-04    0.31E-06
   1     10    11.539     5.777    0.11E-04    0.46E-05    0.25E-07
   1     10    11.539     8.007    0.46E-04    0.29E-04    0.11E-06
 Optimization of the real space projectors (new method)

 maximal supplied QI-value         = 16.25
 optimisation between [QCUT,QGAM] = [ 11.54, 23.24] = [ 37.28,151.24] Ry 
 Optimized for a Real-space Cutoff    1.28 Angstroem

   l    n(q)    QCUT    max X(q) W(low)/X(q) W(high)/X(q)  e(spline) 
   0      9    11.539     8.651    0.22E-04    0.16E-04    0.10E-07
   0      9    11.539    33.192    0.11E-03    0.16E-03    0.65E-07
   1      8    11.539     5.899    0.37E-04    0.28E-04    0.43E-07
   1      8    11.539    27.289    0.22E-03    0.28E-04    0.14E-06
   2      8    11.539     4.673    0.11E-03    0.18E-03    0.58E-07
 Optimization of the real space projectors (new method)

 maximal supplied QI-value         = 19.84
 optimisation between [QCUT,QGAM] = [ 11.51, 23.22] = [ 37.09,150.92] Ry 
 Optimized for a Real-space Cutoff    1.21 Angstroem

   l    n(q)    QCUT    max X(q) W(low)/X(q) W(high)/X(q)  e(spline) 
   0      8    11.508     6.651    0.19E-04    0.31E-05    0.49E-08
   0      8    11.508    90.285    0.95E-04    0.17E-03    0.51E-07
   1      8    11.508     4.328    0.14E-04    0.32E-04    0.22E-07
   1      8    11.508    54.583    0.16E-03    0.71E-04    0.89E-07
 Optimization of the real space projectors (new method)

 maximal supplied QI-value         = 17.95
 optimisation between [QCUT,QGAM] = [ 11.67, 23.34] = [ 38.13,152.52] Ry 
 Optimized for a Real-space Cutoff    1.25 Angstroem

   l    n(q)    QCUT    max X(q) W(low)/X(q) W(high)/X(q)  e(spline) 
   0      9    11.669     6.499    0.13E-04    0.81E-05    0.11E-07
   0      9    11.669    52.623    0.18E-03    0.46E-04    0.72E-07
   1      8    11.669     4.229    0.40E-04    0.45E-04    0.31E-07
   1      8    11.669    29.991    0.22E-03    0.36E-03    0.10E-06
   2      8    11.669     3.719    0.19E-03    0.46E-04    0.50E-07

 ----------------------------------------------------------------------------- 
|                                                                             |
|  ADVICE TO THIS USER RUNNING 'VASP/VAMP'   (HEAR YOUR MASTER'S VOICE ...):  |
|                                                                             |
|      You enforced a specific xc-type in the INCAR file,                     |
|      a different type was found on the POTCAR file                          |
|          I HOPE YOU KNOW, WHAT YOU ARE  DOING                               |
|                                                                             |
 ----------------------------------------------------------------------------- 

 PAW_PBE Co 06Sep2000                   :
 energy of atom  1       EATOM= -813.5563
 kinetic energy error for atom=    0.0028 (will be added to EATOM!!)
 PAW_PBE Ge 05Jan2001                   :
 energy of atom  2       EATOM= -104.9960
 kinetic energy error for atom=    0.0002 (will be added to EATOM!!)
  PAW_PBE P 17Jan2003                   :
 energy of atom  3       EATOM= -176.0430
 kinetic energy error for atom=    0.0011 (will be added to EATOM!!)
 PAW_PBE Se 06Sep2000                   :
 energy of atom  4       EATOM= -256.9644
 kinetic energy error for atom=    0.0007 (will be added to EATOM!!)


 POSCAR: Co2 Ge P Se6                            
  positions in direct lattice
  velocities in cartesian coordinates
  No initial velocities read in
 exchange correlation table for  LEXCH =       42
   RHO(1)=    0.500       N(1)  =     2000
   RHO(2)=  100.500       N(2)  =     4000



--------------------------------------------------------------------------------------------------------


 ion  position               nearest neighbor table
   1  0.333  0.333  0.500-   6 2.78   5 2.78   7 2.78   8 2.78  10 2.78   9 2.78
   2  0.667  0.667  0.500-   9 2.78   8 2.78  10 2.78   5 2.78   7 2.78   6 2.78
   3  0.000  0.000  0.448-   4 2.43   8 2.63  10 2.63   9 2.63
   4  0.000  0.000  0.552-   3 2.43   5 2.63   7 2.63   6 2.63
   5  0.626  0.000  0.574-   4 2.63   1 2.78   2 2.78
   6  0.000  0.373  0.574-   4 2.63   1 2.78   2 2.78
   7  0.373  0.626  0.574-   4 2.63   1 2.78   2 2.78
   8  0.374  1.000  0.426-   3 2.63   2 2.78   1 2.78
   9  1.000  0.627  0.426-   3 2.63   2 2.78   1 2.78
  10  0.627  0.374  0.426-   3 2.63   2 2.78   1 2.78

  LATTYP: Found a hexagonal cell.
 ALAT       =     6.9077769333
 C/A-ratio  =     3.3939410937
  
  Lattice vectors:
  
 A1 = (   3.4538890000,  -5.9823100000,   0.0000000000)
 A2 = (  -6.9077770000,   0.0000000000,   0.0000000000)
 A3 = (   0.0000000000,   0.0000000000, -23.4445880000)


Analysis of symmetry for initial positions (statically):
=====================================================================
 Subroutine PRICEL returns:
 Original cell was already a primitive cell.
 

 Routine SETGRP: Setting up the symmetry group for a 
 hexagonal supercell.


 Subroutine GETGRP returns: Found  3 space group operations
 (whereof  3 operations were pure point group operations)
 out of a pool of 24 trial point group operations.


The static configuration has the point symmetry C_3 .


Analysis of symmetry for dynamics (positions and initial velocities):
=====================================================================
 Subroutine PRICEL returns:
 Original cell was already a primitive cell.
 

 Routine SETGRP: Setting up the symmetry group for a 
 hexagonal supercell.


 Subroutine GETGRP returns: Found  3 space group operations
 (whereof  3 operations were pure point group operations)
 out of a pool of 24 trial point group operations.


The dynamic configuration has the point symmetry C_3 .


Analysis of constrained symmetry for selective dynamics:
=====================================================================
 Subroutine PRICEL returns:
 Original cell was already a primitive cell.
 

 Routine SETGRP: Setting up the symmetry group for a 
 hexagonal supercell.


 Subroutine GETGRP returns: Found  3 space group operations
 (whereof  3 operations were pure point group operations)
 out of a pool of 24 trial point group operations.


The constrained configuration has the point symmetry C_3 .


Analysis of structural, dynamic, and magnetic symmetry:
=====================================================================
 Subroutine PRICEL returns:
 Original cell was already a primitive cell.
 

 Routine SETGRP: Setting up the symmetry group for a 
 hexagonal supercell.


 Subroutine GETGRP returns: Found  3 space group operations
 (whereof  3 operations were pure point group operations)
 out of a pool of 24 trial point group operations.


The magnetic configuration has the point symmetry C_3 .


 Subroutine INISYM returns: Found  3 space group operations
 (whereof  3 operations are pure point group operations),
 and found     1 'primitive' translations



 KPOINTS: Kpoints from vasprun.xml                

Automatic generation of k-mesh.
Space group operators:
 irot       det(A)        alpha          n_x          n_y          n_z        tau_x        tau_y        tau_z
    1     1.000000     0.000000     1.000000     0.000000     0.000000     0.000000     0.000000     0.000000
    2     1.000000   120.000000     0.000000     0.000000     1.000000     0.000000     0.000000     0.000000
    3     1.000000   120.000000     0.000000     0.000000    -1.000000     0.000000     0.000000     0.000000
 
 Subroutine IBZKPT returns following result:
 ===========================================
 
 Found      5 irreducible k-points:
 
 Following reciprocal coordinates:
            Coordinates               Weight
  0.000000  0.000000  0.000000      1.000000
  0.200000  0.000000  0.000000      6.000000
  0.400000  0.000000  0.000000      6.000000
  0.400000  0.200000  0.000000      6.000000
 -0.400000  0.200000  0.000000      6.000000
 
 Following cartesian coordinates:
            Coordinates               Weight
  0.000000  0.000000  0.000000      1.000000
  0.028953 -0.016716  0.000000      6.000000
  0.057906 -0.033432  0.000000      6.000000
  0.057906  0.000000  0.000000      6.000000
 -0.057906  0.066864  0.000000      6.000000
 
 TETIRR: Found     15 inequivalent tetrahedra from      150


--------------------------------------------------------------------------------------------------------




 Dimension of arrays:
   k-points           NKPTS =      5   k-points in BZ     NKDIM =      5   number of bands    NBANDS=     48
   number of dos      NEDOS =    301   number of ions     NIONS =     10
   non local maximal  LDIM  =      6   non local SUM 2l+1 LMDIM =     18
   total plane-waves  NPLWV = 524880
   max r-space proj   IRMAX =   8238   max aug-charges    IRDMAX=  29641
   dimension x,y,z NGX =    54 NGY =   54 NGZ =  180
   dimension x,y,z NGXF=   108 NGYF=  108 NGZF=  360
   support grid    NGXF=   108 NGYF=  108 NGZF=  360
   ions per type =               2   1   1   6
   NGX,Y,Z   is equivalent  to a cutoff of  13.00, 13.00, 12.76 a.u.
   NGXF,Y,Z  is equivalent  to a cutoff of  25.99, 25.99, 25.53 a.u.

 SYSTEM =  unknown system                          
 POSCAR =  Co2 Ge P Se6                            

 Startparameter for this run:
   NWRITE =      2    write-flag & timer
   PREC   = accura    normal or accurate (medium, high low for compatibility)
   ISTART =      0    job   : 0-new  1-cont  2-samecut
   ICHARG =      2    charge: 1-file 2-atom 10-const
   ISPIN  =      2    spin polarized calculation?
   LNONCOLLINEAR =      F non collinear calculations
   LSORBIT =      F    spin-orbit coupling
   INIWAV =      1    electr: 0-lowe 1-rand  2-diag
   LASPH  =      F    aspherical Exc in radial PAW
   METAGGA=      F    non-selfconsistent MetaGGA calc.

 Electronic Relaxation 1
   ENCUT  =  520.0 eV  38.22 Ry    6.18 a.u.  12.84 12.84 43.59*2*pi/ulx,y,z
   ENINI  =  520.0     initial cutoff
   ENAUG  =  477.8 eV  augmentation charge cutoff
   NELM   =    400;   NELMIN=  2; NELMDL=  0     # of ELM steps 
   EDIFF  = 0.1E-03   stopping-criterion for ELM
   LREAL  =      T    real-space projection
   NLSPLINE    = F    spline interpolate recip. space projectors
   LCOMPAT=      F    compatible to vasp.4.4
   GGA_COMPAT  = T    GGA compatible to vasp.4.4-vasp.4.6
   LMAXPAW     = -100 max onsite density
   LMAXMIX     =    2 max onsite mixed and CHGCAR
   VOSKOWN=      0    Vosko Wilk Nusair interpolation
   ROPT   =   -0.00025  -0.00025  -0.00025  -0.00025
 Ionic relaxation
   EDIFFG = 0.1E-02   stopping-criterion for IOM
   NSW    =     99    number of steps for IOM
   NBLOCK =      1;   KBLOCK =     99    inner block; outer block 
   IBRION =      2    ionic relax: 0-MD 1-quasi-New 2-CG
   NFREE  =      1    steps in history (QN), initial steepest desc. (CG)
   ISIF   =      3    stress and relaxation
   IWAVPR =     11    prediction:  0-non 1-charg 2-wave 3-comb
   ISYM   =      2    0-nonsym 1-usesym 2-fastsym
   LCORR  =      T    Harris-Foulkes like correction to forces

   POTIM  = 0.5000    time-step for ionic-motion
   TEIN   =    0.0    initial temperature
   TEBEG  =    0.0;   TEEND  =   0.0 temperature during run
   SMASS  =  -3.00    Nose mass-parameter (am)
   estimated Nose-frequenzy (Omega)   =  0.10E-29 period in steps =****** mass=  -0.109E-26a.u.
   SCALEE = 1.0000    scale energy and forces
   NPACO  =    256;   APACO  = 16.0  distance and # of slots for P.C.
   PSTRESS=    0.0 pullay stress

  Mass of Ions in am
   POMASS =  58.93 72.61 30.97 78.96
  Ionic Valenz
   ZVAL   =   9.00  4.00  5.00  6.00
  Atomic Wigner-Seitz radii
   RWIGS  =  -1.00 -1.00 -1.00 -1.00
  virtual crystal weights 
   VCA    =   1.00  1.00  1.00  1.00
   NELECT =      63.0000    total number of electrons
   NUPDOWN=      -1.0000    fix difference up-down

 DOS related values:
   EMIN   =  10.00;   EMAX   =-10.00  energy-range for DOS
   EFERMI =   0.00
   ISMEAR =    -5;   SIGMA  =   0.05  broadening in eV -4-tet -1-fermi 0-gaus

 Electronic relaxation 2 (details)
   IALGO  =     38    algorithm
   LDIAG  =      T    sub-space diagonalisation (order eigenvalues)
   LSUBROT=      F    optimize rotation matrix (better conditioning)
   TURBO    =      0    0=normal 1=particle mesh
   IRESTART =      0    0=no restart 2=restart with 2 vectors
   NREBOOT  =      0    no. of reboots
   NMIN     =      0    reboot dimension
   EREF     =   0.00    reference energy to select bands
   IMIX   =      4    mixing-type and parameters
     AMIX     =   0.40;   BMIX     =  1.00
     AMIX_MAG =   1.60;   BMIX_MAG =  1.00
     AMIN     =   0.01
     WC   =   100.;   INIMIX=   1;  MIXPRE=   1;  MAXMIX= -45

 Intra band minimization:
   WEIMIN = 0.0010     energy-eigenvalue tresh-hold
   EBREAK =  0.52E-06  absolut break condition
   DEPER  =   0.30     relativ break condition  

   TIME   =   0.40     timestep for ELM

  volume/ion in A,a.u.               =      96.88       653.80
  Fermi-wavevector in a.u.,A,eV,Ry     =   0.658322  1.244048  5.896601  0.433388
  Thomas-Fermi vector in A             =   1.730108

 Write flags
   LWAVE        =      F    write WAVECAR
   LDOWNSAMPLE  =      F    k-point downsampling of WAVECAR
   LCHARG       =      T    write CHGCAR
   LVTOT        =      F    write LOCPOT, total local potential
   LVHAR        =      F    write LOCPOT, Hartree potential only
   LELF         =      F    write electronic localiz. function (ELF)
   LORBIT       =     11    0 simple, 1 ext, 2 COOP (PROOUT), +10 PAW based schemes


 Dipole corrections
   LMONO  =      F    monopole corrections only (constant potential shift)
   LDIPOL =      F    correct potential (dipole corrections)
   IDIPOL =      0    1-x, 2-y, 3-z, 4-all directions 
   EPSILON=  1.0000000 bulk dielectric constant

 Exchange correlation treatment:
   GGA     =    BO    GGA type
   LEXCH   =    42    internal setting for exchange type
   VOSKOWN=      0    Vosko Wilk Nusair interpolation
   LHFCALC =     F    Hartree Fock is set to
   LHFONE  =     F    Hartree Fock one center treatment
   AEXX    =    0.0000 exact exchange contribution

 vdW DFT:
   LUSE_VDW   =     T    switch on vdW DFT
   Zab_VDW    =-.8491    correlation parameter
   PARAM1     =0.1833
   PARAM2     =0.2200
   PARAM3     =0.0000
   -- rVV10 --
   BPARAM     = 6.3000
   CPARAM     = 0.0093

 Linear response parameters
   LEPSILON=     F    determine dielectric tensor
   LRPA    =     F    only Hartree local field effects (RPA)
   LNABLA  =     F    use nabla operator in PAW spheres
   LVEL    =     F    velocity operator in full k-point grid
   LINTERFAST=   F  fast interpolation
   KINTER  =     0    interpolate to denser k-point grid
   CSHIFT  =0.1000    complex shift for real part using Kramers Kronig
   OMEGAMAX=  -1.0    maximum frequency
   DEG_THRESHOLD= 0.2000000E-02 threshold for treating states as degnerate
   RTIME   =   -0.100 relaxation time in fs
  (WPLASMAI=    0.000 imaginary part of plasma frequency in eV, 0.658/RTIME)
   DFIELD  = 0.0000000 0.0000000 0.0000000 field for delta impulse in time

 Orbital magnetization related:
   ORBITALMAG=     F  switch on orbital magnetization
   LCHIMAG   =     F  perturbation theory with respect to B field
   DQ        =  0.001000  dq finite difference perturbation B field
   LLRAUG    =     F  two centre corrections for induced B field



--------------------------------------------------------------------------------------------------------


 conjugate gradient relaxation of ions
   using selective dynamics as specified on POSCAR
 charge density and potential will be updated during run
 spin polarized calculation
 Variant of blocked Davidson
 Davidson routine will perform the subspace rotation
 perform sub-space diagonalisation
    after iterative eigenvector-optimisation
 modified Broyden-mixing scheme, WC =      100.0
 initial mixing is a Kerker type mixing with AMIX =  0.4000 and BMIX =      1.0000
 Hartree-type preconditioning will be used
 using additional bands           16
 real space projection scheme for non local part
 use partial core corrections
 calculate Harris-corrections to forces   (improved forces if not selfconsistent)
 use gradient corrections 
 use of overlap-Matrix (Vanderbilt PP)
 Fermi weights with tetrahedron method with Bloechl corrections


--------------------------------------------------------------------------------------------------------


  energy-cutoff  :      520.00
  volume of cell :      968.84
      direct lattice vectors                 reciprocal lattice vectors
     6.907777000 -0.000000000  0.000000000     0.144764372 -0.083579742  0.000000000
     3.453888000  5.982310000  0.000000000     0.000000000  0.167159509 -0.000000000
     0.000000000  0.000000000 23.444588000    -0.000000000  0.000000000  0.042653767

  length of vectors
     6.907777000  6.907776433 23.444588000     0.167159495  0.167159509  0.042653767



 k-points in units of 2pi/SCALE and weight: Kpoints from vasprun.xml                
   0.00000000  0.00000000  0.00000000       0.040
   0.02895287 -0.01671595  0.00000000       0.240
   0.05790575 -0.03343190  0.00000000       0.240
   0.05790575  0.00000000  0.00000000       0.240
  -0.05790575  0.06686380  0.00000000       0.240

 k-points in reciprocal lattice and weights: Kpoints from vasprun.xml                
   0.00000000  0.00000000  0.00000000       0.040
   0.20000000  0.00000000  0.00000000       0.240
   0.40000000  0.00000000  0.00000000       0.240
   0.40000000  0.20000000  0.00000000       0.240
  -0.40000000  0.20000000  0.00000000       0.240

 position of ions in fractional coordinates (direct lattice) 
   0.33333300  0.33333300  0.49992500
   0.66666700  0.66666700  0.50007500
   0.00000000  0.00000000  0.44821600
   0.00000000  0.00000000  0.55178400
   0.62635700  0.00042000  0.57375200
   0.00042000  0.37322400  0.57375200
   0.37322400  0.62635700  0.57375200
   0.37364300  0.99958000  0.42624800
   0.99958000  0.62677600  0.42624800
   0.62677600  0.37364300  0.42624800

 position of ions in cartesian coordinates  (Angst):
   3.45388488  1.99410134 11.72053566
   6.90778012  3.98820866 11.72405234
   0.00000000  0.00000000 10.50823946
   0.00000000  0.00000000 12.93634854
   4.32818511  0.00251257 13.45137925
   1.29197516  2.23274167 13.45137925
   4.74151509  3.74706174 13.45137925
   6.03347989  5.97979743  9.99320875
   9.06968984  3.74956833  9.99320875
   5.62014991  2.23524826  9.99320875



--------------------------------------------------------------------------------------------------------


 k-point  1 :   0.0000 0.0000 0.0000  plane waves:   26073
 k-point  2 :   0.2000 0.0000 0.0000  plane waves:   26070
 k-point  3 :   0.4000 0.0000 0.0000  plane waves:   26086
 k-point  4 :   0.4000 0.2000 0.0000  plane waves:   26085
 k-point  5 :  -0.4000 0.2000 0.0000  plane waves:   26115

 maximum and minimum number of plane-waves per node :     26115    26070

 maximum number of plane-waves:     26115
 maximum index in each direction: 
   IXMAX=   13   IYMAX=   12   IZMAX=   43
   IXMIN=  -13   IYMIN=  -13   IZMIN=  -43


 serial   3D FFT for wavefunctions
 parallel 3D FFT for charge:
    minimum data exchange during FFTs selected (reduces bandwidth)


 total amount of memory used by VASP MPI-rank0   130152. kBytes
=======================================================================

   base      :      30000. kBytes
   nonlr-proj:       7652. kBytes
   fftplans  :      11247. kBytes
   grid      :      68332. kBytes
   one-center:        311. kBytes
   wavefun   :      12610. kBytes

     INWAV:  cpu time    0.0000: real time    0.0006
 Broyden mixing: mesh for mixing (old mesh)
   NGX = 25   NGY = 25   NGZ = 87
  (NGX  =108   NGY  =108   NGZ  =360)
  gives a total of  54375 points

 initial charge density was supplied:
 charge density of overlapping atoms calculated
 number of electron      63.0000000 magnetization       9.7800000
 keeping initial charge density in first step


--------------------------------------------------------------------------------------------------------


 Maximum index for non-local projection operator         7925
 Maximum index for augmentation-charges         2133 (set IRDMAX)


--------------------------------------------------------------------------------------------------------


 First call to EWALD:  gamma=   0.179
 Maximum number of real-space cells 4x 4x 1
 Maximum number of reciprocal cells 2x 2x 6

    FEWALD:  cpu time    0.0040: real time    0.0015


--------------------------------------- Iteration      1(   1)  ---------------------------------------


vdW kernel read from vdw_kernel.bindat
  0.0000  0.2424  0.5071  0.7962  1.1119  1.4567  1.8333  2.2446  2.6937  3.1842
  3.7199  4.3049  4.9438  5.6415  6.4036  7.2358  8.1446  9.1372 10.2212 11.4050
 12.6979 14.1099 15.6519 17.3360 19.1751 21.1837 23.3773 25.7729 28.3892 31.2465
 34.3669 37.7748 41.4965 45.5611 50.0000

    POTLOK:  cpu time   52.6240: real time   52.9345
    SETDIJ:  cpu time    0.0600: real time    0.0605
     EDDAV:  cpu time   22.6880: real time   22.8828
 BZINTS: Fermi energy:  4.739875; 63.000000 electrons
         Band energy: -33.600888;  BLOECHL correction: -0.025455
       DOS:  cpu time    0.0080: real time    0.0081
    --------------------------------------------
      LOOP:  cpu time   75.3800: real time   75.8859

 eigenvalue-minimisations  :   960
 total energy-change (2. order) : 0.4208549E+03  (-0.1906673E+04)
 number of electron      63.0000000 magnetization       9.7800000
 augmentation part       63.0000000 magnetization       9.7800000

 Free energy of the ion-electron system (eV)
  ---------------------------------------------------
  alpha Z        PSCENC =        40.01726321
  Ewald energy   TEWEN  =      7794.22900203
  -Hartree energ DENC   =    -10868.23743932
  -exchange      EXHF   =         0.00000000
  -V(xc)+E(xc)   XCENC  =        15.93619243
  PAW double counting   =      1991.70975131    -1985.53387267
  entropy T*S    EENTRO =         0.00000000
  eigenvalues    EBANDS =       -33.60088832
  atomic energy  EATOM  =      3466.33490765
  Solvation  Ediel_sol  =         0.00000000
  ---------------------------------------------------
  free energy    TOTEN  =       420.85491632 eV

  energy without entropy =      420.85491632  energy(sigma->0) =      420.85491632


--------------------------------------------------------------------------------------------------------




--------------------------------------- Iteration      1(   2)  ---------------------------------------


     EDDAV:  cpu time   29.2480: real time   29.4760
 BZINTS: Fermi energy: -1.624239; 63.000000 electrons
         Band energy:-422.638095;  BLOECHL correction: -0.026232
       DOS:  cpu time    0.0080: real time    0.0101
    --------------------------------------------
      LOOP:  cpu time   29.2560: real time   29.4861

 eigenvalue-minimisations  :  1264
 total energy-change (2. order) :-0.3890372E+03  (-0.3551378E+03)
 number of electron      63.0000000 magnetization       9.7800000
 augmentation part       63.0000000 magnetization       9.7800000

 Free energy of the ion-electron system (eV)
  ---------------------------------------------------
  alpha Z        PSCENC =        40.01726321
  Ewald energy   TEWEN  =      7794.22900203
  -Hartree energ DENC   =    -10868.23743932
  -exchange      EXHF   =         0.00000000
  -V(xc)+E(xc)   XCENC  =        15.93619243
  PAW double counting   =      1991.70975131    -1985.53387267
  entropy T*S    EENTRO =         0.00000000
  eigenvalues    EBANDS =      -422.63809528
  atomic energy  EATOM  =      3466.33490765
  Solvation  Ediel_sol  =         0.00000000
  ---------------------------------------------------
  free energy    TOTEN  =        31.81770936 eV

  energy without entropy =       31.81770936  energy(sigma->0) =       31.81770936


--------------------------------------------------------------------------------------------------------




--------------------------------------- Iteration      1(   3)  ---------------------------------------


     EDDAV:  cpu time   28.7200: real time   29.0397
 BZINTS: Fermi energy: -2.675105; 63.000000 electrons
         Band energy:-494.963746;  BLOECHL correction: -0.007308
       DOS:  cpu time    0.0040: real time    0.0049
    --------------------------------------------
      LOOP:  cpu time   28.7240: real time   29.0446

 eigenvalue-minimisations  :  1248
 total energy-change (2. order) :-0.7232565E+02  (-0.6924295E+02)
 number of electron      63.0000000 magnetization       9.7800000
 augmentation part       63.0000000 magnetization       9.7800000

 Free energy of the ion-electron system (eV)
  ---------------------------------------------------
  alpha Z        PSCENC =        40.01726321
  Ewald energy   TEWEN  =      7794.22900203
  -Hartree energ DENC   =    -10868.23743932
  -exchange      EXHF   =         0.00000000
  -V(xc)+E(xc)   XCENC  =        15.93619243
  PAW double counting   =      1991.70975131    -1985.53387267
  entropy T*S    EENTRO =         0.00000000
  eigenvalues    EBANDS =      -494.96374620
  atomic energy  EATOM  =      3466.33490765
  Solvation  Ediel_sol  =         0.00000000
  ---------------------------------------------------
  free energy    TOTEN  =       -40.50794156 eV

  energy without entropy =      -40.50794156  energy(sigma->0) =      -40.50794156


--------------------------------------------------------------------------------------------------------




--------------------------------------- Iteration      1(   4)  ---------------------------------------


     EDDAV:  cpu time   28.0840: real time   28.3394
 BZINTS: Fermi energy: -2.727508; 63.000000 electrons
         Band energy:-497.838736;  BLOECHL correction: -0.008383
       DOS:  cpu time    0.0040: real time    0.0046
    --------------------------------------------
      LOOP:  cpu time   28.0880: real time   28.3440

 eigenvalue-minimisations  :  1216
 total energy-change (2. order) :-0.2874990E+01  (-0.2845921E+01)
 number of electron      63.0000000 magnetization       9.7800000
 augmentation part       63.0000000 magnetization       9.7800000

 Free energy of the ion-electron system (eV)
  ---------------------------------------------------
  alpha Z        PSCENC =        40.01726321
  Ewald energy   TEWEN  =      7794.22900203
  -Hartree energ DENC   =    -10868.23743932
  -exchange      EXHF   =         0.00000000
  -V(xc)+E(xc)   XCENC  =        15.93619243
  PAW double counting   =      1991.70975131    -1985.53387267
  entropy T*S    EENTRO =         0.00000000
  eigenvalues    EBANDS =      -497.83873582
  atomic energy  EATOM  =      3466.33490765
  Solvation  Ediel_sol  =         0.00000000
  ---------------------------------------------------
  free energy    TOTEN  =       -43.38293118 eV

  energy without entropy =      -43.38293118  energy(sigma->0) =      -43.38293118


--------------------------------------------------------------------------------------------------------




--------------------------------------- Iteration      1(   5)  ---------------------------------------


     EDDAV:  cpu time   28.5200: real time   28.9680
 BZINTS: Fermi energy: -2.728717; 63.000000 electrons
         Band energy:-497.911457;  BLOECHL correction: -0.008429
       DOS:  cpu time    0.0040: real time    0.0192
    CHARGE:  cpu time    2.0360: real time    2.0519
    MIXING:  cpu time    0.0440: real time    0.0410
    --------------------------------------------
      LOOP:  cpu time   30.6040: real time   31.0801

 eigenvalue-minimisations  :  1248
 total energy-change (2. order) :-0.7272106E-01  (-0.7273476E-01)
 number of electron      62.9999988 magnetization       9.7044217
 augmentation part       -1.7302460 magnetization       6.5627999

 Broyden mixing:
  rms(total) = 0.33176E+01    rms(broyden)= 0.33176E+01
  rms(prec ) = 0.35651E+01
  weight for this iteration     100.00

 Free energy of the ion-electron system (eV)
  ---------------------------------------------------
  alpha Z        PSCENC =        40.01726321
  Ewald energy   TEWEN  =      7794.22900203
  -Hartree energ DENC   =    -10868.23743932
  -exchange      EXHF   =         0.00000000
  -V(xc)+E(xc)   XCENC  =        15.93619243
  PAW double counting   =      1991.70975131    -1985.53387267
  entropy T*S    EENTRO =         0.00000000
  eigenvalues    EBANDS =      -497.91145688
  atomic energy  EATOM  =      3466.33490765
  Solvation  Ediel_sol  =         0.00000000
  ---------------------------------------------------
  free energy    TOTEN  =       -43.45565224 eV

  energy without entropy =      -43.45565224  energy(sigma->0) =      -43.45565224


--------------------------------------------------------------------------------------------------------




--------------------------------------- Iteration      1(   6)  ---------------------------------------


    POTLOK:  cpu time   52.4680: real time   52.6323
    SETDIJ:  cpu time    0.0480: real time    0.0478
     EDDAV:  cpu time   27.1880: real time   27.4267
 BZINTS: Fermi energy: -4.309407; 63.000000 electrons
         Band energy:-734.961910;  BLOECHL correction: -0.039743
       DOS:  cpu time    0.0080: real time    0.0070
    CHARGE:  cpu time    2.1440: real time    2.1467
    MIXING:  cpu time    0.0440: real time    0.0444
    --------------------------------------------
      LOOP:  cpu time   81.9000: real time   82.3048

 eigenvalue-minimisations  :  1168
 total energy-change (2. order) :-0.6146801E+02  (-0.6242148E+02)
 number of electron      62.9999981 magnetization       9.3552237
 augmentation part        8.4800808 magnetization       9.2821313

 Broyden mixing:
  rms(total) = 0.63696E+01    rms(broyden)= 0.63695E+01
  rms(prec ) = 0.67033E+01
  weight for this iteration     100.00

 eigenvalues of (default mixing * dielectric matrix)
  average eigenvalue GAMMA=   0.3183
  0.3183

 Free energy of the ion-electron system (eV)
  ---------------------------------------------------
  alpha Z        PSCENC =        40.01726321
  Ewald energy   TEWEN  =      7794.22900203
  -Hartree energ DENC   =    -10727.25155499
  -exchange      EXHF   =         0.00000000
  -V(xc)+E(xc)   XCENC  =        18.80176007
  PAW double counting   =      1758.56159829    -1720.65472776
  entropy T*S    EENTRO =         0.00000000
  eigenvalues    EBANDS =      -734.96191004
  atomic energy  EATOM  =      3466.33490765
  Solvation  Ediel_sol  =         0.00000000
  ---------------------------------------------------
  free energy    TOTEN  =      -104.92366154 eV

  energy without entropy =     -104.92366154  energy(sigma->0) =     -104.92366154


--------------------------------------------------------------------------------------------------------




--------------------------------------- Iteration      1(   7)  ---------------------------------------


    POTLOK:  cpu time   52.3600: real time   52.4764
    SETDIJ:  cpu time    0.0480: real time    0.0476
     EDDAV:  cpu time   25.9080: real time   26.0836
 BZINTS: Fermi energy: -4.433736; 63.000000 electrons
         Band energy:-569.613423;  BLOECHL correction: -0.025033
       DOS:  cpu time    0.0040: real time    0.0066
    CHARGE:  cpu time    2.0840: real time    2.0971
    MIXING:  cpu time    0.0400: real time    0.0417
    --------------------------------------------
      LOOP:  cpu time   80.4440: real time   80.7530

 eigenvalue-minimisations  :  1104
 total energy-change (2. order) : 0.5801145E+02  (-0.7581898E+01)
 number of electron      62.9999983 magnetization       9.0685336
 augmentation part        6.7234293 magnetization       8.2788221

 Broyden mixing:
  rms(total) = 0.35366E+01    rms(broyden)= 0.35366E+01
  rms(prec ) = 0.37866E+01
  weight for this iteration     100.00

 eigenvalues of (default mixing * dielectric matrix)
  average eigenvalue GAMMA=   0.4483
  0.4483  0.4483

 Free energy of the ion-electron system (eV)
  ---------------------------------------------------
  alpha Z        PSCENC =        40.01726321
  Ewald energy   TEWEN  =      7794.22900203
  -Hartree energ DENC   =    -10805.76503846
  -exchange      EXHF   =         0.00000000
  -V(xc)+E(xc)   XCENC  =        15.45363436
  PAW double counting   =      1903.65087934    -1891.21943748
  entropy T*S    EENTRO =         0.00000000
  eigenvalues    EBANDS =      -569.61342345
  atomic energy  EATOM  =      3466.33490765
  Solvation  Ediel_sol  =         0.00000000
  ---------------------------------------------------
  free energy    TOTEN  =       -46.91221281 eV

  energy without entropy =      -46.91221281  energy(sigma->0) =      -46.91221281


--------------------------------------------------------------------------------------------------------




--------------------------------------- Iteration      1(   8)  ---------------------------------------


    POTLOK:  cpu time   52.6360: real time   52.6990
    SETDIJ:  cpu time    0.0480: real time    0.0480
     EDDAV:  cpu time   31.4400: real time   31.7714
 BZINTS: Fermi energy: -3.903683; 63.000000 electrons
         Band energy:-515.941608;  BLOECHL correction: -0.014043
       DOS:  cpu time    0.0040: real time    0.0071
    CHARGE:  cpu time    2.0520: real time    2.1608
    MIXING:  cpu time    0.0440: real time    0.0414
    --------------------------------------------
      LOOP:  cpu time   86.2240: real time   86.7278

 eigenvalue-minimisations  :  1376
 total energy-change (2. order) : 0.1121706E+02  (-0.1753553E+01)
 number of electron      62.9999984 magnetization       8.9905170
 augmentation part        2.6069965 magnetization       7.1357004

 Broyden mixing:
  rms(total) = 0.49927E+00    rms(broyden)= 0.49869E+00
  rms(prec ) = 0.51248E+00
  weight for this iteration     100.00

 eigenvalues of (default mixing * dielectric matrix)
  average eigenvalue GAMMA=   0.3562
  0.4422  0.4422  0.1843

 Free energy of the ion-electron system (eV)
  ---------------------------------------------------
  alpha Z        PSCENC =        40.01726321
  Ewald energy   TEWEN  =      7794.22900203
  -Hartree energ DENC   =    -10842.03689248
  -exchange      EXHF   =         0.00000000
  -V(xc)+E(xc)   XCENC  =        15.70364953
  PAW double counting   =      1969.40498809    -1963.40645989
  entropy T*S    EENTRO =         0.00000000
  eigenvalues    EBANDS =      -515.94160764
  atomic energy  EATOM  =      3466.33490765
  Solvation  Ediel_sol  =         0.00000000
  ---------------------------------------------------
  free energy    TOTEN  =       -35.69514950 eV

  energy without entropy =      -35.69514950  energy(sigma->0) =      -35.69514950


--------------------------------------------------------------------------------------------------------




--------------------------------------- Iteration      1(   9)  ---------------------------------------


    POTLOK:  cpu time   52.1040: real time   52.1938
    SETDIJ:  cpu time    0.0440: real time    0.0465
     EDDAV:  cpu time   26.0840: real time   26.2976
 BZINTS: Fermi energy: -3.950142; 63.000000 electrons
         Band energy:-517.521579;  BLOECHL correction: -0.014208
       DOS:  cpu time    0.0080: real time    0.0068
    CHARGE:  cpu time    2.1600: real time    2.1612
    MIXING:  cpu time    0.0440: real time    0.0431
    --------------------------------------------
      LOOP:  cpu time   80.4440: real time   80.7491

 eigenvalue-minimisations  :  1120
 total energy-change (2. order) :-0.4433179E+00  (-0.3312919E+00)
 number of electron      62.9999984 magnetization       8.9301407
 augmentation part        2.5791450 magnetization       7.1007855

 Broyden mixing:
  rms(total) = 0.49184E+00    rms(broyden)= 0.49176E+00
  rms(prec ) = 0.50597E+00
  weight for this iteration     100.00

 eigenvalues of (default mixing * dielectric matrix)
  average eigenvalue GAMMA=   0.3581
  0.4476  0.4476  0.2687  0.2687

 Free energy of the ion-electron system (eV)
  ---------------------------------------------------
  alpha Z        PSCENC =        40.01726321
  Ewald energy   TEWEN  =      7794.22900203
  -Hartree energ DENC   =    -10841.11392918
  -exchange      EXHF   =         0.00000000
  -V(xc)+E(xc)   XCENC  =        15.67914604
  PAW double counting   =      1969.14452153    -1962.90779996
  entropy T*S    EENTRO =         0.00000000
  eigenvalues    EBANDS =      -517.52157871
  atomic energy  EATOM  =      3466.33490765
  Solvation  Ediel_sol  =         0.00000000
  ---------------------------------------------------
  free energy    TOTEN  =       -36.13846741 eV

  energy without entropy =      -36.13846741  energy(sigma->0) =      -36.13846741


--------------------------------------------------------------------------------------------------------




--------------------------------------- Iteration      1(  10)  ---------------------------------------


    POTLOK:  cpu time   51.1480: real time   51.3038
    SETDIJ:  cpu time    0.0560: real time    0.0574
     EDDAV:  cpu time   28.6840: real time   28.9727
 BZINTS: Fermi energy: -3.912165; 63.000000 electrons
         Band energy:-515.838870;  BLOECHL correction: -0.013804
       DOS:  cpu time    0.0040: real time    0.0067
    CHARGE:  cpu time    2.0680: real time    2.1494
    MIXING:  cpu time    0.0440: real time    0.0429
    --------------------------------------------
      LOOP:  cpu time   82.0040: real time   82.5329

 eigenvalue-minimisations  :  1264
 total energy-change (2. order) : 0.5773867E-01  (-0.1105673E+00)
 number of electron      62.9999984 magnetization       8.8245800
 augmentation part        2.5293958 magnetization       6.9959690

 Broyden mixing:
  rms(total) = 0.46087E+00    rms(broyden)= 0.46086E+00
  rms(prec ) = 0.47402E+00
  weight for this iteration     100.00

 eigenvalues of (default mixing * dielectric matrix)
  average eigenvalue GAMMA=   0.4715
  0.5507  0.5507  0.4505  0.4505  0.3553

 Free energy of the ion-electron system (eV)
  ---------------------------------------------------
  alpha Z        PSCENC =        40.01726321
  Ewald energy   TEWEN  =      7794.22900203
  -Hartree energ DENC   =    -10842.67309827
  -exchange      EXHF   =         0.00000000
  -V(xc)+E(xc)   XCENC  =        15.70423877
  PAW double counting   =      1972.03324464    -1965.88741643
  entropy T*S    EENTRO =         0.00000000
  eigenvalues    EBANDS =      -515.83887032
  atomic energy  EATOM  =      3466.33490765
  Solvation  Ediel_sol  =         0.00000000
  ---------------------------------------------------
  free energy    TOTEN  =       -36.08072874 eV

  energy without entropy =      -36.08072874  energy(sigma->0) =      -36.08072874


--------------------------------------------------------------------------------------------------------




--------------------------------------- Iteration      1(  11)  ---------------------------------------


    POTLOK:  cpu time   50.7120: real time   51.1941
    SETDIJ:  cpu time    0.0480: real time    0.0488
     EDDAV:  cpu time   27.4360: real time   27.6439
 BZINTS: Fermi energy: -3.830242; 63.000000 electrons
         Band energy:-515.161618;  BLOECHL correction: -0.012665
       DOS:  cpu time    0.0040: real time    0.0066
    CHARGE:  cpu time    2.1400: real time    2.1522
    MIXING:  cpu time    0.0400: real time    0.0431
    --------------------------------------------
      LOOP:  cpu time   80.3800: real time   81.0886

 eigenvalue-minimisations  :  1200
 total energy-change (2. order) :-0.2950156E+00  (-0.2577603E+00)
 number of electron      62.9999985 magnetization       8.3751071
 augmentation part        2.4592634 magnetization       6.4223704

 Broyden mixing:
  rms(total) = 0.14895E+01    rms(broyden)= 0.14893E+01
  rms(prec ) = 0.15933E+01
  weight for this iteration     100.00

 eigenvalues of (default mixing * dielectric matrix)
  average eigenvalue GAMMA=   0.5239
  0.8100  0.8100  0.4504  0.4504  0.5808  0.0420

 Free energy of the ion-electron system (eV)
  ---------------------------------------------------
  alpha Z        PSCENC =        40.01726321
  Ewald energy   TEWEN  =      7794.22900203
  -Hartree energ DENC   =    -10843.68546552
  -exchange      EXHF   =         0.00000000
  -V(xc)+E(xc)   XCENC  =        15.71803336
  PAW double counting   =      1974.01519328    -1967.84306070
  entropy T*S    EENTRO =         0.00000000
  eigenvalues    EBANDS =      -515.16161766
  atomic energy  EATOM  =      3466.33490765
  Solvation  Ediel_sol  =         0.00000000
  ---------------------------------------------------
  free energy    TOTEN  =       -36.37574435 eV

  energy without entropy =      -36.37574435  energy(sigma->0) =      -36.37574435


--------------------------------------------------------------------------------------------------------




--------------------------------------- Iteration      1(  12)  ---------------------------------------


    POTLOK:  cpu time   51.2640: real time   51.3486
    SETDIJ:  cpu time    0.0480: real time    0.0467
     EDDAV:  cpu time   28.1200: real time   28.2389
 BZINTS: Fermi energy: -3.946762; 63.000000 electrons
         Band energy:-513.515052;  BLOECHL correction: -0.005436
       DOS:  cpu time    0.0080: real time    0.0073
    CHARGE:  cpu time    2.0960: real time    2.0999
    MIXING:  cpu time    0.0440: real time    0.0439
    --------------------------------------------
      LOOP:  cpu time   81.5800: real time   81.7854

 eigenvalue-minimisations  :  1232
 total energy-change (2. order) : 0.1698038E+00  (-0.8886960E-01)
 number of electron      62.9999985 magnetization       7.9697678
 augmentation part        2.9664836 magnetization       6.6856014

 Broyden mixing:
  rms(total) = 0.81790E+00    rms(broyden)= 0.81788E+00
  rms(prec ) = 0.87132E+00
  weight for this iteration     100.00

 eigenvalues of (default mixing * dielectric matrix)
  average eigenvalue GAMMA=   0.5608
  0.9297  0.9297  0.4662  0.4662  0.5420  0.5420  0.0496

 Free energy of the ion-electron system (eV)
  ---------------------------------------------------
  alpha Z        PSCENC =        40.01726321
  Ewald energy   TEWEN  =      7794.22900203
  -Hartree energ DENC   =    -10845.55275748
  -exchange      EXHF   =         0.00000000
  -V(xc)+E(xc)   XCENC  =        15.76259406
  PAW double counting   =      1979.00710624    -1972.48900414
  entropy T*S    EENTRO =         0.00000000
  eigenvalues    EBANDS =      -513.51505213
  atomic energy  EATOM  =      3466.33490765
  Solvation  Ediel_sol  =         0.00000000
  ---------------------------------------------------
  free energy    TOTEN  =       -36.20594056 eV

  energy without entropy =      -36.20594056  energy(sigma->0) =      -36.20594056


--------------------------------------------------------------------------------------------------------




--------------------------------------- Iteration      1(  13)  ---------------------------------------


    POTLOK:  cpu time   50.9040: real time   50.9943
    SETDIJ:  cpu time    0.0440: real time    0.0464
     EDDAV:  cpu time   27.9320: real time   28.5917
 BZINTS: Fermi energy: -3.794739; 63.000000 electrons
         Band energy:-509.415196;  BLOECHL correction: -0.008352
       DOS:  cpu time    0.0040: real time    0.0064
    CHARGE:  cpu time    2.1720: real time    2.1715
    MIXING:  cpu time    0.0440: real time    0.0446
    --------------------------------------------
      LOOP:  cpu time   81.1000: real time   81.8549

 eigenvalue-minimisations  :  1248
 total energy-change (2. order) : 0.1680257E-01  (-0.9350327E-01)
 number of electron      62.9999984 magnetization       7.4226867
 augmentation part        2.4930198 magnetization       5.7568648

 Broyden mixing:
  rms(total) = 0.27157E+00    rms(broyden)= 0.27095E+00
  rms(prec ) = 0.27698E+00
  weight for this iteration     100.00

 eigenvalues of (default mixing * dielectric matrix)
  average eigenvalue GAMMA=   0.6107
  1.0405  1.0405  0.6964  0.6964  0.4787  0.4787  0.4050  0.0497

 Free energy of the ion-electron system (eV)
  ---------------------------------------------------
  alpha Z        PSCENC =        40.01726321
  Ewald energy   TEWEN  =      7794.22900203
  -Hartree energ DENC   =    -10849.63581223
  -exchange      EXHF   =         0.00000000
  -V(xc)+E(xc)   XCENC  =        15.76520817
  PAW double counting   =      1987.15145535    -1980.63596593
  entropy T*S    EENTRO =         0.00000000
  eigenvalues    EBANDS =      -509.41519623
  atomic energy  EATOM  =      3466.33490765
  Solvation  Ediel_sol  =         0.00000000
  ---------------------------------------------------
  free energy    TOTEN  =       -36.18913800 eV

  energy without entropy =      -36.18913800  energy(sigma->0) =      -36.18913800


--------------------------------------------------------------------------------------------------------




--------------------------------------- Iteration      1(  14)  ---------------------------------------


    POTLOK:  cpu time   50.3680: real time   50.8237
    SETDIJ:  cpu time    0.0440: real time    0.0464
     EDDAV:  cpu time   25.5200: real time   25.6386
 BZINTS: Fermi energy: -3.975050; 63.000000 electrons
         Band energy:-515.992117;  BLOECHL correction: -0.008906
       DOS:  cpu time    0.0040: real time    0.0058
    CHARGE:  cpu time    2.0560: real time    2.0770
    MIXING:  cpu time    0.0920: real time    0.0899
    --------------------------------------------
      LOOP:  cpu time   78.0840: real time   78.6813

 eigenvalue-minimisations  :  1104
 total energy-change (2. order) :-0.5383788E+00  (-0.9167972E-01)
 number of electron      62.9999984 magnetization       7.3576657
 augmentation part        3.5266123 magnetization       6.6966158

 Broyden mixing:
  rms(total) = 0.12384E+01    rms(broyden)= 0.12382E+01
  rms(prec ) = 0.13076E+01
  weight for this iteration     100.00

 eigenvalues of (default mixing * dielectric matrix)
  average eigenvalue GAMMA=   0.5484
  0.9796  0.9796  0.7659  0.7659  0.4738  0.4738  0.3644  0.0496  0.0828

 Free energy of the ion-electron system (eV)
  ---------------------------------------------------
  alpha Z        PSCENC =        40.01726321
  Ewald energy   TEWEN  =      7794.22900203
  -Hartree energ DENC   =    -10844.47195189
  -exchange      EXHF   =         0.00000000
  -V(xc)+E(xc)   XCENC  =        15.83890715
  PAW double counting   =      1978.86044797    -1971.54397587
  entropy T*S    EENTRO =         0.00000000
  eigenvalues    EBANDS =      -515.99211710
  atomic energy  EATOM  =      3466.33490765
  Solvation  Ediel_sol  =         0.00000000
  ---------------------------------------------------
  free energy    TOTEN  =       -36.72751685 eV

  energy without entropy =      -36.72751685  energy(sigma->0) =      -36.72751685


--------------------------------------------------------------------------------------------------------




--------------------------------------- Iteration      1(  15)  ---------------------------------------


    POTLOK:  cpu time   51.0920: real time   51.6022
    SETDIJ:  cpu time    0.0480: real time    0.0483
     EDDAV:  cpu time   27.3320: real time   27.7963
 BZINTS: Fermi energy: -3.963972; 63.000000 electrons
         Band energy:-514.860866;  BLOECHL correction: -0.008559
       DOS:  cpu time    0.0040: real time    0.0054
    CHARGE:  cpu time    2.0600: real time    2.1234
    MIXING:  cpu time    0.0320: real time    0.0477
    --------------------------------------------
      LOOP:  cpu time   80.5680: real time   81.6233

 eigenvalue-minimisations  :  1200
 total energy-change (2. order) : 0.5628611E-01  (-0.3275110E-01)
 number of electron      62.9999985 magnetization       7.2515358
 augmentation part        3.4513204 magnetization       6.6363954

 Broyden mixing:
  rms(total) = 0.11907E+01    rms(broyden)= 0.11907E+01
  rms(prec ) = 0.12594E+01
  weight for this iteration     100.00

 eigenvalues of (default mixing * dielectric matrix)
  average eigenvalue GAMMA=   0.5823
  1.3460  0.8456  0.7291  0.7291  0.4781  0.4781  0.4056  0.3808  0.3808  0.0497

 Free energy of the ion-electron system (eV)
  ---------------------------------------------------
  alpha Z        PSCENC =        40.01726321
  Ewald energy   TEWEN  =      7794.22900203
  -Hartree energ DENC   =    -10845.45321592
  -exchange      EXHF   =         0.00000000
  -V(xc)+E(xc)   XCENC  =        15.83862203
  PAW double counting   =      1980.90612531    -1973.68306894
  entropy T*S    EENTRO =         0.00000000
  eigenvalues    EBANDS =      -514.86086611
  atomic energy  EATOM  =      3466.33490765
  Solvation  Ediel_sol  =         0.00000000
  ---------------------------------------------------
  free energy    TOTEN  =       -36.67123074 eV

  energy without entropy =      -36.67123074  energy(sigma->0) =      -36.67123074


--------------------------------------------------------------------------------------------------------




--------------------------------------- Iteration      1(  16)  ---------------------------------------


    POTLOK:  cpu time   50.4600: real time   50.9508
    SETDIJ:  cpu time    0.0480: real time    0.0465
     EDDAV:  cpu time   24.1880: real time   24.6132
 BZINTS: Fermi energy: -3.963965; 63.000000 electrons
         Band energy:-514.695247;  BLOECHL correction: -0.008933
       DOS:  cpu time    0.0040: real time    0.0075
    CHARGE:  cpu time    2.1600: real time    2.1606
    MIXING:  cpu time    0.0480: real time    0.0475
    --------------------------------------------
      LOOP:  cpu time   76.9080: real time   77.8261

 eigenvalue-minimisations  :  1056
 total energy-change (2. order) : 0.1791496E+00  (-0.9017229E-01)
 number of electron      62.9999985 magnetization       7.0591692
 augmentation part        3.4032464 magnetization       6.4624182

 Broyden mixing:
  rms(total) = 0.10916E+01    rms(broyden)= 0.10916E+01
  rms(prec ) = 0.11502E+01
  weight for this iteration     100.00

 eigenvalues of (default mixing * dielectric matrix)
  average eigenvalue GAMMA=   0.6328
  1.3542  0.8581  0.8581  0.9790  0.4907  0.4907  0.5099  0.5099  0.5336  0.3268
  0.0497

 Free energy of the ion-electron system (eV)
  ---------------------------------------------------
  alpha Z        PSCENC =        40.01726321
  Ewald energy   TEWEN  =      7794.22900203
  -Hartree energ DENC   =    -10845.44791844
  -exchange      EXHF   =         0.00000000
  -V(xc)+E(xc)   XCENC  =        15.81382976
  PAW double counting   =      1981.75780587    -1974.50172420
  entropy T*S    EENTRO =         0.00000000
  eigenvalues    EBANDS =      -514.69524700
  atomic energy  EATOM  =      3466.33490765
  Solvation  Ediel_sol  =         0.00000000
  ---------------------------------------------------
  free energy    TOTEN  =       -36.49208113 eV

  energy without entropy =      -36.49208113  energy(sigma->0) =      -36.49208113


--------------------------------------------------------------------------------------------------------




--------------------------------------- Iteration      1(  17)  ---------------------------------------


    POTLOK:  cpu time   51.1600: real time   51.3268
    SETDIJ:  cpu time    0.0440: real time    0.0466
     EDDAV:  cpu time   29.8640: real time   30.2161
 BZINTS: Fermi energy: -3.982532; 63.000000 electrons
         Band energy:-518.116116;  BLOECHL correction: -0.012055
       DOS:  cpu time    0.0040: real time    0.0074
    CHARGE:  cpu time    2.1360: real time    2.1382
    MIXING:  cpu time    0.0520: real time    0.0486
    --------------------------------------------
      LOOP:  cpu time   83.2600: real time   83.7837

 eigenvalue-minimisations  :  1328
 total energy-change (2. order) :-0.2643417E+01  (-0.7212303E-02)
 number of electron      62.9999984 magnetization       7.0562381
 augmentation part        2.7659298 magnetization       7.2574546

 Broyden mixing:
  rms(total) = 0.12044E+01    rms(broyden)= 0.11955E+01
  rms(prec ) = 0.12798E+01
  weight for this iteration     100.00

 eigenvalues of (default mixing * dielectric matrix)
  average eigenvalue GAMMA=   0.5805
  1.3603  0.8580  0.8580  0.9747  0.4905  0.4905  0.5096  0.5096  0.5346  0.3271
  0.0497  0.0038

 Free energy of the ion-electron system (eV)
  ---------------------------------------------------
  alpha Z        PSCENC =        40.01726321
  Ewald energy   TEWEN  =      7794.22900203
  -Hartree energ DENC   =    -10844.71290129
  -exchange      EXHF   =         0.00000000
  -V(xc)+E(xc)   XCENC  =        15.74695072
  PAW double counting   =      1981.90567390    -1974.54027861
  entropy T*S    EENTRO =         0.00000000
  eigenvalues    EBANDS =      -518.11611570
  atomic energy  EATOM  =      3466.33490765
  Solvation  Ediel_sol  =         0.00000000
  ---------------------------------------------------
  free energy    TOTEN  =       -39.13549811 eV

  energy without entropy =      -39.13549811  energy(sigma->0) =      -39.13549811


--------------------------------------------------------------------------------------------------------




--------------------------------------- Iteration      1(  18)  ---------------------------------------


    POTLOK:  cpu time   50.7160: real time   51.0144
    SETDIJ:  cpu time    0.0480: real time    0.0478
     EDDAV:  cpu time   24.0320: real time   24.2760
 BZINTS: Fermi energy: -3.931627; 63.000000 electrons
         Band energy:-515.547719;  BLOECHL correction: -0.006890
       DOS:  cpu time    0.0080: real time    0.0076
    CHARGE:  cpu time    2.0680: real time    2.1255
    MIXING:  cpu time    0.0480: real time    0.0494
    --------------------------------------------
      LOOP:  cpu time   76.9200: real time   77.5207

 eigenvalue-minimisations  :  1040
 total energy-change (2. order) : 0.2879116E+01  (-0.4790197E+02)
 number of electron      62.9999984 magnetization       6.6596108
 augmentation part        3.0655693 magnetization       5.4299563

 Broyden mixing:
  rms(total) = 0.57089E+00    rms(broyden)= 0.55895E+00
  rms(prec ) = 0.59153E+00
  weight for this iteration     100.00

 eigenvalues of (default mixing * dielectric matrix)
  average eigenvalue GAMMA=   0.6277
  1.8007  1.1806  0.8243  0.8243  0.5395  0.5395  0.4790  0.4790  0.5571  0.5571
  0.3230  0.0497  0.0063

 Free energy of the ion-electron system (eV)
  ---------------------------------------------------
  alpha Z        PSCENC =        40.01726321
  Ewald energy   TEWEN  =      7794.22900203
  -Hartree energ DENC   =    -10844.61703485
  -exchange      EXHF   =         0.00000000
  -V(xc)+E(xc)   XCENC  =        15.94935764
  PAW double counting   =      1981.83064835    -1974.45280709
  entropy T*S    EENTRO =         0.00000000
  eigenvalues    EBANDS =      -515.54771867
  atomic energy  EATOM  =      3466.33490765
  Solvation  Ediel_sol  =         0.00000000
  ---------------------------------------------------
  free energy    TOTEN  =       -36.25638173 eV

  energy without entropy =      -36.25638173  energy(sigma->0) =      -36.25638173


--------------------------------------------------------------------------------------------------------




--------------------------------------- Iteration      1(  19)  ---------------------------------------


    POTLOK:  cpu time   50.8400: real time   51.1095
    SETDIJ:  cpu time    0.0480: real time    0.0473
     EDDAV:  cpu time   27.7880: real time   28.0211
 BZINTS: Fermi energy: -3.905389; 63.000000 electrons
         Band energy:-515.368006;  BLOECHL correction: -0.001601
       DOS:  cpu time    0.0080: real time    0.0068
    CHARGE:  cpu time    2.1440: real time    2.1441
    MIXING:  cpu time    0.0640: real time    0.0649
    --------------------------------------------
      LOOP:  cpu time   80.8920: real time   81.3937

 eigenvalue-minimisations  :  1216
 total energy-change (2. order) :-0.2175464E+00  (-0.7458139E-02)
 number of electron      62.9999984 magnetization       6.3375197
 augmentation part        2.7464691 magnetization       4.7685954

 Broyden mixing:
  rms(total) = 0.27612E+00    rms(broyden)= 0.27507E+00
  rms(prec ) = 0.29149E+00
  weight for this iteration     100.00

 eigenvalues of (default mixing * dielectric matrix)
  average eigenvalue GAMMA=   0.7141
  2.7628  0.8263  0.8263  0.9947  0.9947  0.4958  0.4958  0.4997  0.4997  0.6061
  0.6061  0.3330  0.0497  0.0063

 Free energy of the ion-electron system (eV)
  ---------------------------------------------------
  alpha Z        PSCENC =        40.01726321
  Ewald energy   TEWEN  =      7794.22900203
  -Hartree energ DENC   =    -10844.63789773
  -exchange      EXHF   =         0.00000000
  -V(xc)+E(xc)   XCENC  =        15.82193459
  PAW double counting   =      1982.37831336    -1975.24944550
  entropy T*S    EENTRO =         0.00000000
  eigenvalues    EBANDS =      -515.36800570
  atomic energy  EATOM  =      3466.33490765
  Solvation  Ediel_sol  =         0.00000000
  ---------------------------------------------------
  free energy    TOTEN  =       -36.47392810 eV

  energy without entropy =      -36.47392810  energy(sigma->0) =      -36.47392810


--------------------------------------------------------------------------------------------------------




--------------------------------------- Iteration      1(  20)  ---------------------------------------


    POTLOK:  cpu time   50.9800: real time   51.1713
    SETDIJ:  cpu time    0.0480: real time    0.0474
     EDDAV:  cpu time   32.3280: real time   32.4599
 BZINTS: Fermi energy: -3.838099; 63.000000 electrons
         Band energy:-513.721290;  BLOECHL correction: -0.009331
       DOS:  cpu time    0.0040: real time    0.0070
    CHARGE:  cpu time    2.1520: real time    2.1733
    MIXING:  cpu time    0.0560: real time    0.0543
    --------------------------------------------
      LOOP:  cpu time   85.5680: real time   85.9132

 eigenvalue-minimisations  :  1440
 total energy-change (2. order) :-0.1015958E+00  (-0.1533180E-01)
 number of electron      62.9999984 magnetization       5.9864071
 augmentation part        2.4771844 magnetization       4.4236641

 Broyden mixing:
  rms(total) = 0.23583E+00    rms(broyden)= 0.23576E+00
  rms(prec ) = 0.25417E+00
  weight for this iteration     100.00

 eigenvalues of (default mixing * dielectric matrix)
  average eigenvalue GAMMA=   0.7777
  3.2234  1.3023  1.3023  0.8410  0.8410  0.5120  0.5120  0.5019  0.5019  0.5988
  0.5722  0.5722  0.3284  0.0497  0.0063

 Free energy of the ion-electron system (eV)
  ---------------------------------------------------
  alpha Z        PSCENC =        40.01726321
  Ewald energy   TEWEN  =      7794.22900203
  -Hartree energ DENC   =    -10845.81210004
  -exchange      EXHF   =         0.00000000
  -V(xc)+E(xc)   XCENC  =        15.90651960
  PAW double counting   =      1983.54232180    -1977.07214785
  entropy T*S    EENTRO =         0.00000000
  eigenvalues    EBANDS =      -513.72129032
  atomic energy  EATOM  =      3466.33490765
  Solvation  Ediel_sol  =         0.00000000
  ---------------------------------------------------
  free energy    TOTEN  =       -36.57552393 eV

  energy without entropy =      -36.57552393  energy(sigma->0) =      -36.57552393


--------------------------------------------------------------------------------------------------------




--------------------------------------- Iteration      1(  21)  ---------------------------------------


    POTLOK:  cpu time   50.9720: real time   51.0893
    SETDIJ:  cpu time    0.0480: real time    0.0469
     EDDAV:  cpu time   29.5200: real time   29.7970
 BZINTS: Fermi energy: -3.844724; 63.000000 electrons
         Band energy:-515.214461;  BLOECHL correction: -0.011778
       DOS:  cpu time    0.0040: real time    0.0071
    CHARGE:  cpu time    2.0760: real time    2.1005
    MIXING:  cpu time    0.0520: real time    0.0537
    --------------------------------------------
      LOOP:  cpu time   82.6720: real time   83.0945

 eigenvalue-minimisations  :  1312
 total energy-change (2. order) :-0.2909141E-01  (-0.1270252E-01)
 number of electron      62.9999984 magnetization       5.7556130
 augmentation part        2.4334195 magnetization       4.1691478

 Broyden mixing:
  rms(total) = 0.87258E-01    rms(broyden)= 0.87200E-01
  rms(prec ) = 0.89077E-01
  weight for this iteration     100.00

 eigenvalues of (default mixing * dielectric matrix)
  average eigenvalue GAMMA=   0.8140
  3.6137  1.3452  1.3452  0.8369  0.8369  0.5080  0.5080  0.5118  0.5118  0.7590
  0.6353  0.6353  0.5924  0.3291  0.0497  0.0063

 Free energy of the ion-electron system (eV)
  ---------------------------------------------------
  alpha Z        PSCENC =        40.01726321
  Ewald energy   TEWEN  =      7794.22900203
  -Hartree energ DENC   =    -10843.90590698
  -exchange      EXHF   =         0.00000000
  -V(xc)+E(xc)   XCENC  =        15.89529054
  PAW double counting   =      1980.22328040    -1974.18399137
  entropy T*S    EENTRO =         0.00000000
  eigenvalues    EBANDS =      -515.21446083
  atomic energy  EATOM  =      3466.33490765
  Solvation  Ediel_sol  =         0.00000000
  ---------------------------------------------------
  free energy    TOTEN  =       -36.60461535 eV

  energy without entropy =      -36.60461535  energy(sigma->0) =      -36.60461535


--------------------------------------------------------------------------------------------------------




--------------------------------------- Iteration      1(  22)  ---------------------------------------


    POTLOK:  cpu time   50.9760: real time   51.1316
    SETDIJ:  cpu time    0.0480: real time    0.0462
     EDDAV:  cpu time   30.3840: real time   30.6719
 BZINTS: Fermi energy: -3.842551; 63.000000 electrons
         Band energy:-515.674595;  BLOECHL correction: -0.012337
       DOS:  cpu time    0.0080: real time    0.0070
    CHARGE:  cpu time    2.1160: real time    2.1504
    MIXING:  cpu time    0.0560: real time    0.0547
    --------------------------------------------
      LOOP:  cpu time   83.5880: real time   84.0620

 eigenvalue-minimisations  :  1344
 total energy-change (2. order) :-0.1500194E-01  (-0.2665038E-02)
 number of electron      62.9999984 magnetization       5.3798149
 augmentation part        2.4499337 magnetization       3.7649651

 Broyden mixing:
  rms(total) = 0.79489E-01    rms(broyden)= 0.79475E-01
  rms(prec ) = 0.80082E-01
  weight for this iteration     100.00

 eigenvalues of (default mixing * dielectric matrix)
  average eigenvalue GAMMA=   0.9337
  4.6143  2.0889  1.2670  1.2670  0.8330  0.8330  0.5087  0.5087  0.5097  0.5097
  0.6109  0.6109  0.7287  0.5978  0.3290  0.0497  0.0063

 Free energy of the ion-electron system (eV)
  ---------------------------------------------------
  alpha Z        PSCENC =        40.01726321
  Ewald energy   TEWEN  =      7794.22900203
  -Hartree energ DENC   =    -10843.29401171
  -exchange      EXHF   =         0.00000000
  -V(xc)+E(xc)   XCENC  =        15.88265076
[...]
     34      -1.4707      0.00000
     35      -1.1341      0.00000
     36      -1.1129      0.00000
     37      -0.6216      0.00000
     38       0.2312      0.00000
     39       0.4401      0.00000
     40       1.1878      0.00000
     41       1.4019      0.00000
     42       1.7023      0.00000
     43       2.2079      0.00000
     44       2.5311      0.00000
     45       2.9414      0.00000
     46       3.4462      0.00000
     47       3.5520      0.00000
     48       3.6754      0.00000

 k-point     5 :      -0.4000    0.2000    0.0000
  band No.  band energies     occupation 
      1     -16.6898      1.00000
      2     -16.4333      1.00000
      3     -16.0154      1.00000
      4     -15.7212      1.00000
      5     -15.5980      1.00000
      6     -15.4257      1.00000
      7     -12.5030      1.00000
      8     -10.4054      1.00000
      9      -8.0987      1.00000
     10      -7.5530      1.00000
     11      -7.4275      1.00000
     12      -6.8775      1.00000
     13      -6.6251      1.00000
     14      -6.3662      1.00000
     15      -6.2955      1.00000
     16      -5.9471      1.00000
     17      -5.8563      1.00000
     18      -5.6267      1.00000
     19      -5.5462      1.00000
     20      -5.3208      1.00000
     21      -5.2230      1.00000
     22      -4.5850      1.00000
     23      -4.2381      1.00000
     24      -4.1150      1.00000
     25      -3.9330      1.00000
     26      -3.8112      1.00000
     27      -3.5055      1.00000
     28      -3.3677      1.00000
     29      -3.2888      1.00000
     30      -3.1957      1.00000
     31      -3.1789      1.00000
     32      -2.2461     -0.01124
     33      -1.7168      0.00000
     34      -1.7119      0.00000
     35      -1.4401      0.00000
     36      -1.0691      0.00000
     37      -0.6842      0.00000
     38      -0.0898      0.00000
     39       0.2342      0.00000
     40       1.1437      0.00000
     41       1.1607      0.00000
     42       1.2734      0.00000
     43       2.8330      0.00000
     44       2.9404      0.00000
     45       2.9479      0.00000
     46       3.0260      0.00000
     47       3.3974      0.00000
     48       3.8948      0.00000


--------------------------------------------------------------------------------------------------------


 soft charge-density along one line, spin component           1
         0         1         2         3         4         5         6         7         8         9
 total charge-density along one line

 soft charge-density along one line, spin component           2
         0         1         2         3         4         5         6         7         8         9
 total charge-density along one line

 pseudopotential strength for first ion, spin component:           1
-10.261  -0.095  -0.000   0.016   0.000   0.955   0.033   0.000
 -0.095 -10.338   0.000   0.000   0.016   0.033   0.982  -0.000
 -0.000   0.000 -10.155   0.000   0.000   0.000  -0.000   0.918
  0.016   0.000   0.000 -10.338   0.095  -0.006  -0.000  -0.000
  0.000   0.016   0.000   0.095 -10.261  -0.000  -0.006  -0.000
  0.955   0.033   0.000  -0.006  -0.000   0.685  -0.012  -0.000
  0.033   0.982  -0.000  -0.000  -0.006  -0.012   0.675   0.000
  0.000  -0.000   0.918  -0.000  -0.000  -0.000   0.000   0.699
 -0.006  -0.000  -0.000   0.982  -0.033   0.002   0.000   0.000
 -0.000  -0.006  -0.000  -0.033   0.955   0.000   0.002   0.000
 -0.000  -0.000  -0.002  -0.000   0.000  -0.000  -0.000   0.001
  0.000   0.000   0.000   0.000  -0.000  -0.000  -0.000  -0.000
 -0.000   0.002   0.000  -0.000   0.001   0.000  -0.001  -0.000
 -0.000  -0.000   0.003  -0.000  -0.000  -0.000   0.000  -0.001
  0.001  -0.000   0.000   0.002   0.000   0.000  -0.000  -0.000
  0.000  -0.001  -0.000   0.000  -0.002  -0.000   0.000   0.000
  0.000   0.000  -0.002   0.000   0.000  -0.000  -0.000   0.001
 -0.002   0.000  -0.000  -0.001  -0.000   0.000  -0.000   0.000
 pseudopotential strength for first ion, spin component:           2
-10.154  -0.069  -0.000  -0.015   0.000   0.916   0.025   0.000
 -0.069 -10.211   0.000   0.000  -0.015   0.025   0.936  -0.000
 -0.000   0.000 -10.082   0.000   0.000   0.000  -0.000   0.890
 -0.015   0.000   0.000 -10.211   0.070   0.005  -0.000  -0.000
  0.000  -0.015   0.000   0.070 -10.154  -0.000   0.005  -0.000
  0.916   0.025   0.000   0.005  -0.000   0.699  -0.009  -0.000
  0.025   0.936  -0.000  -0.000   0.005  -0.009   0.692   0.000
  0.000  -0.000   0.890  -0.000  -0.000  -0.000   0.000   0.709
  0.005  -0.000  -0.000   0.936  -0.025  -0.002   0.000   0.000
 -0.000   0.005  -0.000  -0.025   0.916   0.000  -0.002   0.000
 -0.000  -0.000  -0.001  -0.000   0.000  -0.000  -0.000   0.001
  0.000   0.000   0.000   0.000  -0.000  -0.000  -0.000  -0.000
  0.000   0.003   0.000  -0.000   0.001  -0.000  -0.001  -0.000
 -0.000  -0.000   0.003  -0.000  -0.000  -0.000   0.000  -0.001
  0.001  -0.000   0.000   0.003  -0.000   0.000  -0.000  -0.000
 -0.000  -0.001  -0.000   0.000  -0.002   0.000   0.000   0.000
  0.000   0.000  -0.002   0.000   0.000  -0.000  -0.000   0.001
 -0.002   0.000  -0.000  -0.001   0.000   0.000  -0.000   0.000
 total augmentation occupancy for first ion, spin component:           1
  1.679  -0.264   0.000   0.006  -0.000   0.107   0.148   0.000   0.002   0.000  -0.000  -0.000  -0.002   0.000   0.015  -0.000
 -0.264   1.447  -0.000  -0.000   0.006   0.148   0.249   0.000   0.000   0.002  -0.000   0.000   0.001  -0.000   0.007   0.000
  0.000  -0.000   1.924  -0.000  -0.000   0.000   0.000  -0.030   0.000  -0.000  -0.006  -0.006  -0.000   0.006   0.000   0.000
  0.006  -0.000  -0.000   1.447   0.264   0.002  -0.000   0.000   0.249  -0.148   0.000   0.000  -0.007  -0.000   0.001   0.000
 -0.000   0.006  -0.000   0.264   1.679  -0.000   0.002  -0.000  -0.148   0.107   0.000   0.000   0.015  -0.000   0.002  -0.001
  0.107   0.148   0.000   0.002  -0.000   0.102   0.055   0.000  -0.004  -0.000   0.000  -0.000   0.001  -0.000   0.028  -0.000
  0.148   0.249   0.000  -0.000   0.002   0.055   0.161   0.000  -0.000  -0.004   0.000   0.000   0.001   0.000  -0.005  -0.000
  0.000   0.000  -0.030   0.000  -0.000   0.000   0.000   0.086   0.000  -0.000   0.019  -0.010  -0.000  -0.003   0.000   0.000
  0.002   0.000   0.000   0.249  -0.148  -0.004  -0.000   0.000   0.161  -0.055   0.000  -0.000   0.005   0.000   0.001  -0.000
  0.000   0.002  -0.000  -0.148   0.107  -0.000  -0.004  -0.000  -0.055   0.102  -0.000   0.000   0.028   0.000  -0.001  -0.004
 -0.000  -0.000  -0.006   0.000   0.000   0.000   0.000   0.019   0.000  -0.000   1.090  -0.323  -0.000   0.000   0.000   0.000
 -0.000  -0.000  -0.006   0.000   0.000  -0.000   0.000  -0.010  -0.000   0.000  -0.323   0.168   0.000  -0.001  -0.000   0.000
 -0.002   0.001  -0.000  -0.007   0.015   0.001   0.001  -0.000   0.005   0.028  -0.000   0.000   0.213   0.000  -0.000  -0.016
  0.000   0.000   0.006  -0.000  -0.000  -0.000   0.000  -0.003   0.000   0.000   0.000  -0.001   0.000   0.216  -0.000  -0.000
  0.015   0.007   0.000   0.001   0.002   0.028  -0.005   0.000   0.001  -0.001  -0.000  -0.000  -0.000  -0.000   0.213   0.000
 -0.000   0.000   0.000   0.000  -0.001  -0.000  -0.000   0.000  -0.000  -0.004   0.000   0.000  -0.016  -0.000   0.000   0.002
  0.000  -0.000   0.001   0.000  -0.000   0.000   0.000   0.000  -0.000  -0.000   0.000   0.000  -0.000  -0.017   0.000   0.000
 -0.001  -0.000  -0.000   0.000   0.000  -0.004   0.000  -0.000  -0.000   0.000  -0.000   0.000  -0.000   0.000  -0.016  -0.000
 total augmentation occupancy for first ion, spin component:           2
  0.024   0.018   0.000  -0.023  -0.000  -0.015  -0.005  -0.000   0.011  -0.002   0.000  -0.000   0.002  -0.000  -0.001   0.000
  0.018   0.038   0.000  -0.000  -0.023  -0.005  -0.018  -0.000  -0.002   0.008   0.000   0.000   0.002   0.000   0.000  -0.000
  0.000   0.000  -0.000  -0.000  -0.000  -0.000  -0.000  -0.006   0.000   0.000   0.000  -0.000   0.000  -0.000   0.000   0.000
 -0.023  -0.000  -0.000   0.038  -0.018   0.008   0.002   0.000  -0.018   0.005   0.000   0.000  -0.000   0.000   0.002  -0.000
 -0.000  -0.023  -0.000  -0.018   0.024   0.002   0.011   0.000   0.005  -0.015  -0.000   0.000  -0.001   0.000  -0.002   0.000
 -0.015  -0.005  -0.000   0.008   0.002   0.001  -0.000   0.000  -0.002  -0.000  -0.000   0.000  -0.001   0.000   0.001   0.000
 -0.005  -0.018  -0.000   0.002   0.011  -0.000   0.001   0.000  -0.000  -0.002   0.000   0.000  -0.001  -0.000  -0.000   0.000
 -0.000  -0.000  -0.006   0.000   0.000   0.000   0.000   0.000  -0.000  -0.000  -0.000   0.000  -0.000   0.000  -0.000   0.000
  0.011  -0.002   0.000  -0.018   0.005  -0.002  -0.000  -0.000   0.001   0.000  -0.000  -0.000   0.000   0.000  -0.001   0.000
 -0.002   0.008   0.000   0.005  -0.015  -0.000  -0.002  -0.000   0.000   0.001   0.000  -0.000   0.001  -0.000   0.001   0.000
  0.000   0.000   0.000   0.000  -0.000  -0.000   0.000  -0.000  -0.000   0.000   0.002   0.004  -0.000  -0.000   0.000   0.000
 -0.000   0.000  -0.000   0.000   0.000   0.000   0.000   0.000  -0.000  -0.000   0.004  -0.003  -0.000   0.000   0.000   0.000
  0.002   0.002   0.000  -0.000  -0.001  -0.001  -0.001  -0.000   0.000   0.001  -0.000  -0.000   0.001   0.000  -0.000   0.000
 -0.000   0.000  -0.000   0.000   0.000   0.000   0.000   0.000   0.000  -0.000  -0.000   0.000   0.000   0.002   0.000   0.000
 -0.001   0.000   0.000   0.002  -0.002   0.001  -0.000  -0.000  -0.001   0.001   0.000   0.000  -0.000   0.000   0.001   0.000
  0.000  -0.000   0.000  -0.000   0.000   0.000   0.000   0.000   0.000   0.000   0.000  -0.000   0.000   0.000   0.000  -0.000
  0.000   0.000   0.000  -0.000  -0.000  -0.000   0.000  -0.000   0.000   0.000   0.000   0.000   0.000   0.000  -0.000  -0.000
  0.000   0.000   0.000  -0.000  -0.000   0.000  -0.000   0.000   0.000  -0.000  -0.000  -0.000  -0.000   0.000   0.000   0.000


------------------------ aborting loop because EDIFF is reached ----------------------------------------





 total charge     

# of ion       s       p       d       tot
------------------------------------------
    1        0.391   0.486   7.398   8.275
    2        0.391   0.487   7.407   8.285
    3        1.165   1.112   0.100   2.377
    4        1.095   1.321   0.000   2.416
    5        1.502   2.243   0.054   3.799
    6        1.490   2.224   0.056   3.769
    7        1.498   2.230   0.055   3.783
    8        1.493   2.261   0.049   3.803
    9        1.487   2.282   0.049   3.818
   10        1.490   2.261   0.050   3.801
--------------------------------------------------
tot         12.002  16.907  15.217  44.126



 magnetization (x)

# of ion       s       p       d       tot
------------------------------------------
    1       -0.000   0.001   0.140   0.142
    2       -0.000   0.001   0.141   0.142
    3        0.011   0.009   0.001   0.020
    4        0.030   0.005   0.000   0.035
    5        0.005   0.059   0.000   0.064
    6        0.003   0.040   0.001   0.044
    7        0.004   0.056   0.001   0.061
    8        0.003   0.011   0.001   0.015
    9        0.003   0.007   0.001   0.010
   10        0.003   0.010   0.001   0.013
--------------------------------------------------
tot          0.061   0.200   0.285   0.547

    CHARGE:  cpu time    2.0520: real time    2.1187
    FORLOC:  cpu time    0.0640: real time    0.0622
    FORNL :  cpu time    6.8200: real time    6.8680
    STRESS:  cpu time   20.2880: real time   20.6540
    FORCOR:  cpu time   51.4200: real time   51.5947
    FORHAR:  cpu time    0.3400: real time    0.3387
    MIXING:  cpu time    0.0440: real time    0.0422
    OFIELD:  cpu time    0.0000: real time    0.0000

  FORCE on cell =-STRESS in cart. coord.  units (eV):
  Direction    XX          YY          ZZ          XY          YZ          ZX
  --------------------------------------------------------------------------------------
  Alpha Z    54.32191    54.32191    54.32191
  Ewald   11061.35530 11061.35299-13126.13225    -0.00237    -0.00056    -0.00101
  Hartree 11654.57004 11654.57109-11208.61833    -0.00042     0.00007     0.00012
  E(xc)    -259.63810  -259.63809  -259.64103     0.00001     0.00000     0.00001
  Local  -23476.20805-23476.20800 23534.89858     0.00233     0.00030     0.00056
  n-local   258.66987   259.72473   265.48449     0.24028     0.42092     0.44234
  augment    60.64729    60.64746    57.05513    -0.00002     0.00005     0.00006
  Kinetic   649.37411   641.54495   682.20008    -4.55450     1.01303     0.20652
  Fock        0.00000     0.00000     0.00000     0.00000     0.00000     0.00000
  -------------------------------------------------------------------------------------
  Total      -0.29530    -0.29530    -0.43142     0.00000    -0.00000     0.00000
  in kB      -0.66290    -0.66290    -0.96848     0.00000    -0.00000     0.00000
  external pressure =       -0.76 kB  Pullay stress =        0.00 kB


 VOLUME and BASIS-vectors are now :
 -----------------------------------------------------------------------------
  energy-cutoff  :      520.00
  volume of cell :      713.71
      direct lattice vectors                 reciprocal lattice vectors
     6.229845494 -0.000000110 -0.000000000     0.160517623 -0.092674891  0.000000000
     3.114922496  5.395204151 -0.000000000     0.000000003  0.185349796 -0.000000000
    -0.000000000  0.000000000 21.234254413     0.000000000 -0.000000000  0.047093719

  length of vectors
     6.229845494  6.229845102 21.234254413     0.185349785  0.185349796  0.047093719


 FORCES acting on ions
    electron-ion (+dipol)            ewald-force                    non-local-force                 convergence-correction
 -----------------------------------------------------------------------------------------------
   -.163E-04 -.905E-05 0.129E+02   0.729E-03 0.438E-03 -.131E+02   -.122E-19 0.139E-16 0.173E+00   0.562E-06 0.845E-06 -.107E-01
   0.693E-05 0.306E-04 0.128E+02   -.717E-03 -.432E-03 -.130E+02   -.139E-16 0.278E-16 0.170E+00   -.155E-06 0.419E-06 -.807E-02
   -.428E-04 -.165E-04 0.243E+03   -.169E-03 -.948E-04 -.242E+03   -.688E-17 -.695E-17 -.862E+00   0.702E-07 0.455E-07 0.113E-01
   0.510E-04 0.229E-04 -.317E+03   0.230E-03 0.128E-03 0.318E+03   0.308E-19 -.747E-20 -.436E+00   -.101E-07 0.204E-07 -.299E-01
   -.242E+02 -.755E-01 -.493E+03   0.225E+02 -.870E-03 0.496E+03   0.174E+01 -.114E-03 -.240E+01   -.184E-01 0.750E-01 -.595E-01
   0.120E+02 0.210E+02 -.493E+03   -.112E+02 -.195E+02 0.496E+03   -.872E+00 -.151E+01 -.240E+01   0.742E-01 -.216E-01 -.595E-01
   0.122E+02 -.209E+02 -.493E+03   -.112E+02 0.195E+02 0.496E+03   -.872E+00 0.151E+01 -.240E+01   -.558E-01 -.535E-01 -.595E-01
   0.339E+02 -.969E-01 0.510E+03   -.321E+02 0.208E-01 -.512E+03   -.184E+01 0.156E-02 0.241E+01   0.144E-01 0.754E-01 0.462E-01
   -.170E+02 -.293E+02 0.510E+03   0.161E+02 0.278E+02 -.512E+03   0.923E+00 0.160E+01 0.241E+01   0.580E-01 -.502E-01 0.462E-01
   -.169E+02 0.294E+02 0.510E+03   0.160E+02 -.278E+02 -.512E+03   0.921E+00 -.160E+01 0.241E+01   -.725E-01 -.252E-01 0.462E-01
 -----------------------------------------------------------------------------------------------
   0.638E-04 0.118E-03 0.992E+00   -.107E-13 0.711E-14 -.341E-12   0.222E-15 -.222E-15 -.939E+00   0.653E-06 0.147E-05 -.773E-01


 POSITION                                       TOTAL-FORCE (eV/Angst)
 -----------------------------------------------------------------------------------
      3.11492      1.79840     10.62429         0.000000     -0.000000     -0.020338
      6.22985      3.59680     10.62447         0.000000     -0.000000     -0.021117
     -0.00000      0.00000      9.51753         0.000000     -0.000000      0.097495
     -0.00000      0.00000     11.88422         0.000000     -0.000000      0.022983
      3.82767      0.00008     12.07009         0.021932     -0.000917     -0.007890
      1.20116      2.08031     12.07009        -0.011760     -0.018535     -0.007890
      4.31595      3.31482     12.07009        -0.010172      0.019452     -0.007890
      5.53268      5.39504      9.16095        -0.011212      0.000211     -0.018451
      8.13574      3.30144      9.16095         0.005789      0.009604     -0.018451
      5.02110      2.09392      9.16095         0.005423     -0.009815     -0.018451
 -----------------------------------------------------------------------------------
    total drift:                                0.000064      0.000119     -0.024067


--------------------------------------------------------------------------------------------------------



  FREE ENERGIE OF THE ION-ELECTRON SYSTEM (eV)
  ---------------------------------------------------
  free  energy   TOTEN  =       -41.35474626 eV

  energy  without entropy=      -41.35474626  energy(sigma->0) =      -41.35474626

 d Force =-0.7562278E-04[-0.290E-03, 0.139E-03]  d Energy = 0.2190881E-02-0.227E-02
 d Force =-0.4161335E+01[-0.417E+01,-0.415E+01]  d Ewald  =-0.3857048E+02 0.344E+02


--------------------------------------------------------------------------------------------------------


    POTLOK:  cpu time   51.5800: real time   51.7972


--------------------------------------------------------------------------------------------------------




--------------------------------------------------------------------------------------------------------


  
 reached required accuracy - stopping structural energy minimisation
     LOOP+:  cpu time  595.7840: real time  598.8224
    4ORBIT:  cpu time    0.0000: real time    0.0000



 total charge     

# of ion       s       p       d       tot
------------------------------------------
    1        0.391   0.486   7.398   8.275
    2        0.391   0.487   7.407   8.285
    3        1.165   1.112   0.100   2.377
    4        1.095   1.321   0.000   2.416
    5        1.502   2.243   0.054   3.799
    6        1.490   2.224   0.056   3.769
    7        1.498   2.230   0.055   3.783
    8        1.493   2.261   0.049   3.803
    9        1.487   2.282   0.049   3.818
   10        1.490   2.261   0.050   3.801
--------------------------------------------------
tot         12.002  16.907  15.217  44.126



 magnetization (x)

# of ion       s       p       d       tot
------------------------------------------
    1       -0.000   0.001   0.140   0.142
    2       -0.000   0.001   0.141   0.142
    3        0.011   0.009   0.001   0.020
    4        0.030   0.005   0.000   0.035
    5        0.005   0.059   0.000   0.064
    6        0.003   0.040   0.001   0.044
    7        0.004   0.056   0.001   0.061
    8        0.003   0.011   0.001   0.015
    9        0.003   0.007   0.001   0.010
   10        0.003   0.010   0.001   0.013
--------------------------------------------------
tot          0.061   0.200   0.285   0.547

 BZINTS: Fermi energy: -2.335318; 63.000000 electrons
         Band energy:-482.074122;  BLOECHL correction: -0.017658

 total amount of memory used by VASP MPI-rank0   132659. kBytes
=======================================================================

   base      :      30000. kBytes
   nonlr-proj:      10159. kBytes
   fftplans  :      11247. kBytes
   grid      :      68332. kBytes
   one-center:        311. kBytes
   wavefun   :      12610. kBytes

  
  
 General timing and accounting informations for this job:
 ========================================================
  
                  Total CPU time used (sec):    14186.300
                            User time (sec):    13879.032
                          System time (sec):      307.268
                         Elapsed time (sec):    14279.287
  
                   Maximum memory used (kb):      386864.
                   Average memory used (kb):           0.
  
                          Minor page faults:      9247628
                          Major page faults:           15
                 Voluntary context switches:         1135
