 vasp.5.4.4.18Apr17-6-g9f103f2a35 (build May  1 2020 15:48:39) complex           
 executed on             LinuxGNU date 2020.07.02  09:25:28
 running on    8 total cores
 distrk:  each k-point on    8 cores,    1 groups
 distr:  one band on NCORES_PER_BAND=   1 cores,    8 groups


--------------------------------------------------------------------------------------------------------


 INCAR:
 POTCAR:   PAW_PBE Cr 06Sep2000                   
 POTCAR:   PAW_PBE Ge 05Jan2001                   
 POTCAR:    PAW_PBE S 17Jan2003                   

 ----------------------------------------------------------------------------- 
|                                                                             |
|           W    W    AA    RRRRR   N    N  II  N    N   GGGG   !!!           |
|           W    W   A  A   R    R  NN   N  II  NN   N  G    G  !!!           |
|           W    W  A    A  R    R  N N  N  II  N N  N  G       !!!           |
|           W WW W  AAAAAA  RRRRR   N  N N  II  N  N N  G  GGG   !            |
|           WW  WW  A    A  R   R   N   NN  II  N   NN  G    G                |
|           W    W  A    A  R    R  N    N  II  N    N   GGGG   !!!           |
|                                                                             |
|      For optimal performance we recommend to set                            |
|        NCORE= 4 - approx SQRT( number of cores)                             |
|      NCORE specifies how many cores store one orbital (NPAR=cpu/NCORE).     |
|      This setting can  greatly improve the performance of VASP for DFT.     |
|      The default,   NCORE=1            might be grossly inefficient         |
|      on modern multi-core architectures or massively parallel machines.     |
|      Do your own testing !!!!                                               |
|      Unfortunately you need to use the default for GW and RPA calculations. |
|      (for HF NCORE is supported but not extensively tested yet)             |
|                                                                             |
 ----------------------------------------------------------------------------- 


 ----------------------------------------------------------------------------- 
|                                                                             |
|  ADVICE TO THIS USER RUNNING 'VASP/VAMP'   (HEAR YOUR MASTER'S VOICE ...):  |
|                                                                             |
|      You have switched on vdW-DFT.                                          |
|      This routine was written and supplied by Jiri Klimes.                  |
|      We recommed that you carefully read and cite the following             |
|      publication                                                            |
|      J. Klimes, D.R. Bowler, A. Michelides                                  |
|        J. Phys.: Cond Matt. 22 022201 (2010)                                |
|      J. Klimes, D.R. Bowler, A. Michelides                                  |
|        Phys. Rev. B. 83, 195131 (2011)                                      |
|      and references therein.                                                |
|                                                                             |
 ----------------------------------------------------------------------------- 

 POTCAR:   PAW_PBE Cr 06Sep2000                   
   VRHFIN =Cr : d5 s1                                                           
   LEXCH  = PE                                                                  
   EATOM  =   276.9744 eV,   20.3570 Ry                                         
                                                                                
   TITEL  = PAW_PBE Cr 06Sep2000                                                
   LULTRA =        F    use ultrasoft PP ?                                      
   IUNSCR =        1    unscreen: 0-lin 1-nonlin 2-no                           
   RPACOR =    2.080    partial core radius                                     
   POMASS =   51.996; ZVAL   =    6.000    mass and valenz                      
   RCORE  =    2.500    outmost cutoff radius                                   
   RWIGS  =    2.500; RWIGS  =    1.323    wigner-seitz radius (au A)           
   ENMAX  =  227.082; ENMIN  =  170.311 eV                                      
   RCLOC  =    1.721    cutoff for local pot                                    
   LCOR   =        T    correct aug charges                                     
   LPAW   =        T    paw PP                                                  
   EAUG   =  402.108                                                            
   DEXC   =    -.035                                                            
   RMAX   =    3.060    core radius for proj-oper                               
   RAUG   =    1.300    factor for augmentation sphere                          
   RDEP   =    2.609    radius for radial grids                                 
   QCUT   =   -4.085; QGAM   =    8.171    optimization parameters              
                                                                                
   Description                                                                  
     l     E      TYP  RCUT    TYP  RCUT                                        
     2   .000     23  2.500                                                     
     2   .000     23  2.500                                                     
     0   .000     23  2.500                                                     
     0   .000     23  2.500                                                     
     1  -.400     23  2.500                                                     
     1  2.000     23  2.500                                                     
     3   .000      7   .000                                                     
  local pseudopotential read in
  partial core-charges read in
  atomic valenz-charges read in
  non local Contribution for L=           2  read in
    real space projection operators read in
  non local Contribution for L=           2  read in
    real space projection operators read in
  non local Contribution for L=           0  read in
    real space projection operators read in
  non local Contribution for L=           0  read in
    real space projection operators read in
  non local Contribution for L=           1  read in
    real space projection operators read in
  non local Contribution for L=           1  read in
    real space projection operators read in
    PAW grid and wavefunctions read in

   number of l-projection  operators is LMAX  =           6
   number of lm-projection operators is LMMAX =          18

 POTCAR:   PAW_PBE Ge 05Jan2001                   
   VRHFIN =Ge: s2p2                                                             
   LEXCH  = PE                                                                  
   EATOM  =   104.9960 eV,    7.7170 Ry                                         
                                                                                
   TITEL  = PAW_PBE Ge 05Jan2001                                                
   LULTRA =        F    use ultrasoft PP ?                                      
   IUNSCR =        1    unscreen: 0-lin 1-nonlin 2-no                           
   RPACOR =    2.170    partial core radius                                     
   POMASS =   72.610; ZVAL   =    4.000    mass and valenz                      
   RCORE  =    2.300    outmost cutoff radius                                   
   RWIGS  =    2.300; RWIGS  =    1.217    wigner-seitz radius (au A)           
   ENMAX  =  173.807; ENMIN  =  130.355 eV                                      
   ICORE  =        3    local potential                                         
   LCOR   =        T    correct aug charges                                     
   LPAW   =        T    paw PP                                                  
   EAUG   =  385.843                                                            
   DEXC   =    -.138                                                            
   RMAX   =    3.497    core radius for proj-oper                               
   RAUG   =    1.300    factor for augmentation sphere                          
   RDEP   =    2.318    radius for radial grids                                 
   QCUT   =   -3.574; QGAM   =    7.148    optimization parameters              
                                                                                
   Description                                                                  
     l     E      TYP  RCUT    TYP  RCUT                                        
     0   .000     23  2.300                                                     
     0   .000     23  2.300                                                     
     1   .000     23  2.300                                                     
     1   .000     23  2.300                                                     
     2   .000     23  2.300                                                     
     3  -.100      7  2.300                                                     
  local pseudopotential read in
  partial core-charges read in
  atomic valenz-charges read in
  non local Contribution for L=           0  read in
    real space projection operators read in
  non local Contribution for L=           0  read in
    real space projection operators read in
  non local Contribution for L=           1  read in
    real space projection operators read in
  non local Contribution for L=           1  read in
    real space projection operators read in
  non local Contribution for L=           2  read in
    real space projection operators read in
    PAW grid and wavefunctions read in

   number of l-projection  operators is LMAX  =           5
   number of lm-projection operators is LMMAX =          13

 POTCAR:    PAW_PBE S 17Jan2003                   
   VRHFIN =S : s2p4                                                             
   LEXCH  = PE                                                                  
   EATOM  =   276.8230 eV,   20.3459 Ry                                         
                                                                                
   TITEL  = PAW_PBE S 17Jan2003                                                 
   LULTRA =        F    use ultrasoft PP ?                                      
   IUNSCR =        1    unscreen: 0-lin 1-nonlin 2-no                           
   RPACOR =    1.500    partial core radius                                     
   POMASS =   32.066; ZVAL   =    6.000    mass and valenz                      
   RCORE  =    1.900    outmost cutoff radius                                   
   RWIGS  =    2.200; RWIGS  =    1.164    wigner-seitz radius (au A)           
   ENMAX  =  280.000; ENMIN  =  194.016 eV                                      
   ICORE  =        2    local potential                                         
   LCOR   =        T    correct aug charges                                     
   LPAW   =        T    paw PP                                                  
   EAUG   =  335.092                                                            
   DEXC   =     .000                                                            
   RMAX   =    2.867    core radius for proj-oper                               
   RAUG   =    1.300    factor for augmentation sphere                          
   RDEP   =    1.954    radius for radial grids                                 
   QCUT   =   -4.360; QGAM   =    8.721    optimization parameters              
                                                                                
   Description                                                                  
     l     E      TYP  RCUT    TYP  RCUT                                        
     0   .000     23  1.900                                                     
     0   .000     23  1.900                                                     
     1   .000     23  1.900                                                     
     1   .000     23  1.900                                                     
     2   .000     23  1.900                                                     
  local pseudopotential read in
  partial core-charges read in
  atomic valenz-charges read in
  non local Contribution for L=           0  read in
    real space projection operators read in
  non local Contribution for L=           0  read in
    real space projection operators read in
  non local Contribution for L=           1  read in
    real space projection operators read in
  non local Contribution for L=           1  read in
    real space projection operators read in
    PAW grid and wavefunctions read in

   number of l-projection  operators is LMAX  =           4
   number of lm-projection operators is LMMAX =           8

 Optimization of the real space projectors (new method)

 maximal supplied QI-value         = 15.12
 optimisation between [QCUT,QGAM] = [ 11.64, 23.28] = [ 37.95,151.78] Ry 
 Optimized for a Real-space Cutoff    1.49 Angstroem

   l    n(q)    QCUT    max X(q) W(low)/X(q) W(high)/X(q)  e(spline) 
   2      9    11.641     4.777    0.25E-04    0.21E-05    0.63E-07
   2      9    11.641    31.132    0.13E-03    0.22E-03    0.64E-06
   0     10    11.641    20.416    0.11E-04    0.74E-05    0.19E-07
   0     10    11.641    45.408    0.10E-03    0.85E-04    0.30E-06
   1     10    11.641     7.848    0.22E-04    0.23E-04    0.56E-07
   1     10    11.641     9.895    0.85E-04    0.54E-04    0.16E-06
 Optimization of the real space projectors (new method)

 maximal supplied QI-value         = 16.25
 optimisation between [QCUT,QGAM] = [ 11.54, 23.24] = [ 37.28,151.24] Ry 
 Optimized for a Real-space Cutoff    1.28 Angstroem

   l    n(q)    QCUT    max X(q) W(low)/X(q) W(high)/X(q)  e(spline) 
   0      9    11.539     8.651    0.22E-04    0.16E-04    0.10E-07
   0      9    11.539    33.192    0.11E-03    0.16E-03    0.65E-07
   1      8    11.539     5.899    0.37E-04    0.28E-04    0.43E-07
   1      8    11.539    27.289    0.22E-03    0.28E-04    0.14E-06
   2      8    11.539     4.673    0.11E-03    0.18E-03    0.58E-07
 Optimization of the real space projectors (new method)

 maximal supplied QI-value         = 19.84
 optimisation between [QCUT,QGAM] = [ 11.51, 23.22] = [ 37.09,150.92] Ry 
 Optimized for a Real-space Cutoff    1.21 Angstroem

   l    n(q)    QCUT    max X(q) W(low)/X(q) W(high)/X(q)  e(spline) 
   0      8    11.508     5.487    0.18E-04    0.22E-05    0.47E-08
   0      8    11.508    85.627    0.96E-04    0.18E-03    0.54E-07
   1      8    11.508     3.530    0.17E-04    0.28E-04    0.21E-07
   1      8    11.508    42.714    0.18E-03    0.63E-04    0.92E-07

 ----------------------------------------------------------------------------- 
|                                                                             |
|  ADVICE TO THIS USER RUNNING 'VASP/VAMP'   (HEAR YOUR MASTER'S VOICE ...):  |
|                                                                             |
|      You enforced a specific xc-type in the INCAR file,                     |
|      a different type was found on the POTCAR file                          |
|          I HOPE YOU KNOW, WHAT YOU ARE  DOING                               |
|                                                                             |
 ----------------------------------------------------------------------------- 

 PAW_PBE Cr 06Sep2000                   :
 energy of atom  1       EATOM= -276.9744
 kinetic energy error for atom=    0.0010 (will be added to EATOM!!)
 PAW_PBE Ge 05Jan2001                   :
 energy of atom  2       EATOM= -104.9960
 kinetic energy error for atom=    0.0002 (will be added to EATOM!!)
  PAW_PBE S 17Jan2003                   :
 energy of atom  3       EATOM= -276.8230
 kinetic energy error for atom=    0.0016 (will be added to EATOM!!)


 POSCAR: Cr2 Ge2 S6                              
  positions in direct lattice
  velocities in cartesian coordinates
  No initial velocities read in
 exchange correlation table for  LEXCH =       42
   RHO(1)=    0.500       N(1)  =     2000
   RHO(2)=  100.500       N(2)  =     4000



--------------------------------------------------------------------------------------------------------


 ion  position               nearest neighbor table
   1  0.333  0.333  0.500-   6 2.78   5 2.78   7 2.78   8 2.78  10 2.78   9 2.78
   2  0.667  0.667  0.500-   9 2.78   8 2.78  10 2.78   5 2.78   7 2.78   6 2.78
   3  0.000  0.000  0.448-   4 2.43   8 2.63  10 2.63   9 2.63
   4  0.000  0.000  0.552-   3 2.43   5 2.63   7 2.63   6 2.63
   5  0.626  0.000  0.574-   4 2.63   1 2.78   2 2.78
   6  0.000  0.373  0.574-   4 2.63   1 2.78   2 2.78
   7  0.373  0.626  0.574-   4 2.63   1 2.78   2 2.78
   8  0.374  1.000  0.426-   3 2.63   2 2.78   1 2.78
   9  1.000  0.627  0.426-   3 2.63   2 2.78   1 2.78
  10  0.627  0.374  0.426-   3 2.63   2 2.78   1 2.78

  LATTYP: Found a hexagonal cell.
 ALAT       =     6.9077769333
 C/A-ratio  =     3.3939410937
  
  Lattice vectors:
  
 A1 = (   3.4538890000,  -5.9823100000,   0.0000000000)
 A2 = (  -6.9077770000,   0.0000000000,   0.0000000000)
 A3 = (   0.0000000000,   0.0000000000, -23.4445880000)


Analysis of symmetry for initial positions (statically):
=====================================================================
 Subroutine PRICEL returns:
 Original cell was already a primitive cell.
 

 Routine SETGRP: Setting up the symmetry group for a 
 hexagonal supercell.


 Subroutine GETGRP returns: Found  6 space group operations
 (whereof  6 operations were pure point group operations)
 out of a pool of 24 trial point group operations.


The static configuration has the point symmetry S_6 .


Analysis of symmetry for dynamics (positions and initial velocities):
=====================================================================
 Subroutine PRICEL returns:
 Original cell was already a primitive cell.
 

 Routine SETGRP: Setting up the symmetry group for a 
 hexagonal supercell.


 Subroutine GETGRP returns: Found  6 space group operations
 (whereof  6 operations were pure point group operations)
 out of a pool of 24 trial point group operations.


The dynamic configuration has the point symmetry S_6 .


Analysis of constrained symmetry for selective dynamics:
=====================================================================
 Subroutine PRICEL returns:
 Original cell was already a primitive cell.
 

 Routine SETGRP: Setting up the symmetry group for a 
 hexagonal supercell.


 Subroutine GETGRP returns: Found  6 space group operations
 (whereof  6 operations were pure point group operations)
 out of a pool of 24 trial point group operations.


The constrained configuration has the point symmetry S_6 .


Analysis of structural, dynamic, and magnetic symmetry:
=====================================================================
 Subroutine PRICEL returns:
 Original cell was already a primitive cell.
 

 Routine SETGRP: Setting up the symmetry group for a 
 hexagonal supercell.


 Subroutine GETGRP returns: Found  6 space group operations
 (whereof  6 operations were pure point group operations)
 out of a pool of 24 trial point group operations.


The magnetic configuration has the point symmetry S_6 .


 Subroutine INISYM returns: Found  6 space group operations
 (whereof  6 operations are pure point group operations),
 and found     1 'primitive' translations



 KPOINTS: Kpoints from vasprun.xml                

Automatic generation of k-mesh.
Space group operators:
 irot       det(A)        alpha          n_x          n_y          n_z        tau_x        tau_y        tau_z
    1     1.000000     0.000000     1.000000     0.000000     0.000000     0.000000     0.000000     0.000000
    2    -1.000000     0.000000     1.000000     0.000000     0.000000     0.000000     0.000000     0.000000
    3     1.000000   120.000000     0.000000     0.000000     1.000000     0.000000     0.000000     0.000000
    4    -1.000000   120.000000     0.000000     0.000000     1.000000     0.000000     0.000000     0.000000
    5     1.000000   120.000000     0.000000     0.000000    -1.000000     0.000000     0.000000     0.000000
    6    -1.000000   120.000000     0.000000     0.000000    -1.000000     0.000000     0.000000     0.000000
 
 Subroutine IBZKPT returns following result:
 ===========================================
 
 Found      5 irreducible k-points:
 
 Following reciprocal coordinates:
            Coordinates               Weight
  0.000000  0.000000  0.000000      1.000000
  0.200000  0.000000  0.000000      6.000000
  0.400000  0.000000  0.000000      6.000000
  0.400000  0.200000  0.000000      6.000000
 -0.400000  0.200000  0.000000      6.000000
 
 Following cartesian coordinates:
            Coordinates               Weight
  0.000000  0.000000  0.000000      1.000000
  0.028953 -0.016716  0.000000      6.000000
  0.057906 -0.033432  0.000000      6.000000
  0.057906  0.000000  0.000000      6.000000
 -0.057906  0.066864  0.000000      6.000000
 
 TETIRR: Found     15 inequivalent tetrahedra from      150


--------------------------------------------------------------------------------------------------------




 Dimension of arrays:
   k-points           NKPTS =      5   k-points in BZ     NKDIM =      5   number of bands    NBANDS=     40
   number of dos      NEDOS =    301   number of ions     NIONS =     10
   non local maximal  LDIM  =      6   non local SUM 2l+1 LMDIM =     18
   total plane-waves  NPLWV = 524880
   max r-space proj   IRMAX =   7543   max aug-charges    IRDMAX=  29641
   dimension x,y,z NGX =    54 NGY =   54 NGZ =  180
   dimension x,y,z NGXF=   108 NGYF=  108 NGZF=  360
   support grid    NGXF=   108 NGYF=  108 NGZF=  360
   ions per type =               2   2   6
   NGX,Y,Z   is equivalent  to a cutoff of  13.00, 13.00, 12.76 a.u.
   NGXF,Y,Z  is equivalent  to a cutoff of  25.99, 25.99, 25.53 a.u.

 SYSTEM =  unknown system                          
 POSCAR =  Cr2 Ge2 S6                              

 Startparameter for this run:
   NWRITE =      2    write-flag & timer
   PREC   = accura    normal or accurate (medium, high low for compatibility)
   ISTART =      0    job   : 0-new  1-cont  2-samecut
   ICHARG =      2    charge: 1-file 2-atom 10-const
   ISPIN  =      2    spin polarized calculation?
   LNONCOLLINEAR =      F non collinear calculations
   LSORBIT =      F    spin-orbit coupling
   INIWAV =      1    electr: 0-lowe 1-rand  2-diag
   LASPH  =      F    aspherical Exc in radial PAW
   METAGGA=      F    non-selfconsistent MetaGGA calc.

 Electronic Relaxation 1
   ENCUT  =  520.0 eV  38.22 Ry    6.18 a.u.  12.84 12.84 43.59*2*pi/ulx,y,z
   ENINI  =  520.0     initial cutoff
   ENAUG  =  402.1 eV  augmentation charge cutoff
   NELM   =    400;   NELMIN=  2; NELMDL=  0     # of ELM steps 
   EDIFF  = 0.1E-03   stopping-criterion for ELM
   LREAL  =      T    real-space projection
   NLSPLINE    = F    spline interpolate recip. space projectors
   LCOMPAT=      F    compatible to vasp.4.4
   GGA_COMPAT  = T    GGA compatible to vasp.4.4-vasp.4.6
   LMAXPAW     = -100 max onsite density
   LMAXMIX     =    2 max onsite mixed and CHGCAR
   VOSKOWN=      0    Vosko Wilk Nusair interpolation
   ROPT   =   -0.00025  -0.00025  -0.00025
 Ionic relaxation
   EDIFFG = 0.1E-02   stopping-criterion for IOM
   NSW    =     99    number of steps for IOM
   NBLOCK =      1;   KBLOCK =     99    inner block; outer block 
   IBRION =      2    ionic relax: 0-MD 1-quasi-New 2-CG
   NFREE  =      1    steps in history (QN), initial steepest desc. (CG)
   ISIF   =      3    stress and relaxation
   IWAVPR =     11    prediction:  0-non 1-charg 2-wave 3-comb
   ISYM   =      2    0-nonsym 1-usesym 2-fastsym
   LCORR  =      T    Harris-Foulkes like correction to forces

   POTIM  = 0.5000    time-step for ionic-motion
   TEIN   =    0.0    initial temperature
   TEBEG  =    0.0;   TEEND  =   0.0 temperature during run
   SMASS  =  -3.00    Nose mass-parameter (am)
   estimated Nose-frequenzy (Omega)   =  0.10E-29 period in steps =****** mass=  -0.109E-26a.u.
   SCALEE = 1.0000    scale energy and forces
   NPACO  =    256;   APACO  = 16.0  distance and # of slots for P.C.
   PSTRESS=    0.0 pullay stress

  Mass of Ions in am
   POMASS =  52.00 72.61 32.07
  Ionic Valenz
   ZVAL   =   6.00  4.00  6.00
  Atomic Wigner-Seitz radii
   RWIGS  =  -1.00 -1.00 -1.00
  virtual crystal weights 
   VCA    =   1.00  1.00  1.00
   NELECT =      56.0000    total number of electrons
   NUPDOWN=      -1.0000    fix difference up-down

 DOS related values:
   EMIN   =  10.00;   EMAX   =-10.00  energy-range for DOS
   EFERMI =   0.00
   ISMEAR =    -5;   SIGMA  =   0.05  broadening in eV -4-tet -1-fermi 0-gaus

 Electronic relaxation 2 (details)
   IALGO  =     38    algorithm
   LDIAG  =      T    sub-space diagonalisation (order eigenvalues)
   LSUBROT=      F    optimize rotation matrix (better conditioning)
   TURBO    =      0    0=normal 1=particle mesh
   IRESTART =      0    0=no restart 2=restart with 2 vectors
   NREBOOT  =      0    no. of reboots
   NMIN     =      0    reboot dimension
   EREF     =   0.00    reference energy to select bands
   IMIX   =      4    mixing-type and parameters
     AMIX     =   0.40;   BMIX     =  1.00
     AMIX_MAG =   1.60;   BMIX_MAG =  1.00
     AMIN     =   0.01
     WC   =   100.;   INIMIX=   1;  MIXPRE=   1;  MAXMIX= -45

 Intra band minimization:
   WEIMIN = 0.0010     energy-eigenvalue tresh-hold
   EBREAK =  0.63E-06  absolut break condition
   DEPER  =   0.30     relativ break condition  

   TIME   =   0.40     timestep for ELM

  volume/ion in A,a.u.               =      96.88       653.80
  Fermi-wavevector in a.u.,A,eV,Ry     =   0.632976  1.196152  5.451299  0.400659
  Thomas-Fermi vector in A             =   1.696476

 Write flags
   LWAVE        =      F    write WAVECAR
   LDOWNSAMPLE  =      F    k-point downsampling of WAVECAR
   LCHARG       =      T    write CHGCAR
   LVTOT        =      F    write LOCPOT, total local potential
   LVHAR        =      F    write LOCPOT, Hartree potential only
   LELF         =      F    write electronic localiz. function (ELF)
   LORBIT       =     11    0 simple, 1 ext, 2 COOP (PROOUT), +10 PAW based schemes


 Dipole corrections
   LMONO  =      F    monopole corrections only (constant potential shift)
   LDIPOL =      F    correct potential (dipole corrections)
   IDIPOL =      0    1-x, 2-y, 3-z, 4-all directions 
   EPSILON=  1.0000000 bulk dielectric constant

 Exchange correlation treatment:
   GGA     =    BO    GGA type
   LEXCH   =    42    internal setting for exchange type
   VOSKOWN=      0    Vosko Wilk Nusair interpolation
   LHFCALC =     F    Hartree Fock is set to
   LHFONE  =     F    Hartree Fock one center treatment
   AEXX    =    0.0000 exact exchange contribution

 vdW DFT:
   LUSE_VDW   =     T    switch on vdW DFT
   Zab_VDW    =-.8491    correlation parameter
   PARAM1     =0.1833
   PARAM2     =0.2200
   PARAM3     =0.0000
   -- rVV10 --
   BPARAM     = 6.3000
   CPARAM     = 0.0093

 Linear response parameters
   LEPSILON=     F    determine dielectric tensor
   LRPA    =     F    only Hartree local field effects (RPA)
   LNABLA  =     F    use nabla operator in PAW spheres
   LVEL    =     F    velocity operator in full k-point grid
   LINTERFAST=   F  fast interpolation
   KINTER  =     0    interpolate to denser k-point grid
   CSHIFT  =0.1000    complex shift for real part using Kramers Kronig
   OMEGAMAX=  -1.0    maximum frequency
   DEG_THRESHOLD= 0.2000000E-02 threshold for treating states as degnerate
   RTIME   =   -0.100 relaxation time in fs
  (WPLASMAI=    0.000 imaginary part of plasma frequency in eV, 0.658/RTIME)
   DFIELD  = 0.0000000 0.0000000 0.0000000 field for delta impulse in time

 Orbital magnetization related:
   ORBITALMAG=     F  switch on orbital magnetization
   LCHIMAG   =     F  perturbation theory with respect to B field
   DQ        =  0.001000  dq finite difference perturbation B field
   LLRAUG    =     F  two centre corrections for induced B field



--------------------------------------------------------------------------------------------------------


 conjugate gradient relaxation of ions
   using selective dynamics as specified on POSCAR
 charge density and potential will be updated during run
 spin polarized calculation
 Variant of blocked Davidson
 Davidson routine will perform the subspace rotation
 perform sub-space diagonalisation
    after iterative eigenvector-optimisation
 modified Broyden-mixing scheme, WC =      100.0
 initial mixing is a Kerker type mixing with AMIX =  0.4000 and BMIX =      1.0000
 Hartree-type preconditioning will be used
 using additional bands           12
 real space projection scheme for non local part
 use partial core corrections
 calculate Harris-corrections to forces   (improved forces if not selfconsistent)
 use gradient corrections 
 use of overlap-Matrix (Vanderbilt PP)
 Fermi weights with tetrahedron method with Bloechl corrections


--------------------------------------------------------------------------------------------------------


  energy-cutoff  :      520.00
  volume of cell :      968.84
      direct lattice vectors                 reciprocal lattice vectors
     6.907777000 -0.000000000  0.000000000     0.144764372 -0.083579742  0.000000000
     3.453888000  5.982310000  0.000000000     0.000000000  0.167159509 -0.000000000
     0.000000000  0.000000000 23.444588000    -0.000000000  0.000000000  0.042653767

  length of vectors
     6.907777000  6.907776433 23.444588000     0.167159495  0.167159509  0.042653767



 k-points in units of 2pi/SCALE and weight: Kpoints from vasprun.xml                
   0.00000000  0.00000000  0.00000000       0.040
   0.02895287 -0.01671595  0.00000000       0.240
   0.05790575 -0.03343190  0.00000000       0.240
   0.05790575  0.00000000  0.00000000       0.240
  -0.05790575  0.06686380  0.00000000       0.240

 k-points in reciprocal lattice and weights: Kpoints from vasprun.xml                
   0.00000000  0.00000000  0.00000000       0.040
   0.20000000  0.00000000  0.00000000       0.240
   0.40000000  0.00000000  0.00000000       0.240
   0.40000000  0.20000000  0.00000000       0.240
  -0.40000000  0.20000000  0.00000000       0.240

 position of ions in fractional coordinates (direct lattice) 
   0.33333300  0.33333300  0.49992500
   0.66666700  0.66666700  0.50007500
   0.00000000  0.00000000  0.44821600
   0.00000000  0.00000000  0.55178400
   0.62635700  0.00042000  0.57375200
   0.00042000  0.37322400  0.57375200
   0.37322400  0.62635700  0.57375200
   0.37364300  0.99958000  0.42624800
   0.99958000  0.62677600  0.42624800
   0.62677600  0.37364300  0.42624800

 position of ions in cartesian coordinates  (Angst):
   3.45388488  1.99410134 11.72053566
   6.90778012  3.98820866 11.72405234
   0.00000000  0.00000000 10.50823946
   0.00000000  0.00000000 12.93634854
   4.32818511  0.00251257 13.45137925
   1.29197516  2.23274167 13.45137925
   4.74151509  3.74706174 13.45137925
   6.03347989  5.97979743  9.99320875
   9.06968984  3.74956833  9.99320875
   5.62014991  2.23524826  9.99320875



--------------------------------------------------------------------------------------------------------


 k-point  1 :   0.0000 0.0000 0.0000  plane waves:   26073
 k-point  2 :   0.2000 0.0000 0.0000  plane waves:   26070
 k-point  3 :   0.4000 0.0000 0.0000  plane waves:   26086
 k-point  4 :   0.4000 0.2000 0.0000  plane waves:   26085
 k-point  5 :  -0.4000 0.2000 0.0000  plane waves:   26115

 maximum and minimum number of plane-waves per node :     26115    26070

 maximum number of plane-waves:     26115
 maximum index in each direction: 
   IXMAX=   13   IYMAX=   12   IZMAX=   43
   IXMIN=  -13   IYMIN=  -13   IZMIN=  -43


 serial   3D FFT for wavefunctions
 parallel 3D FFT for charge:
    minimum data exchange during FFTs selected (reduces bandwidth)


 total amount of memory used by VASP MPI-rank0   168082. kBytes
=======================================================================

   base      :      30000. kBytes
   nonlr-proj:       6301. kBytes
   fftplans  :      20284. kBytes
   grid      :      90201. kBytes
   one-center:        311. kBytes
   wavefun   :      20985. kBytes

     INWAV:  cpu time    0.0000: real time    0.0008
 Broyden mixing: mesh for mixing (old mesh)
   NGX = 25   NGY = 25   NGZ = 87
  (NGX  =108   NGY  =108   NGZ  =360)
  gives a total of  54375 points

 initial charge density was supplied:
 charge density of overlapping atoms calculated
 number of electron      56.0000000 magnetization       6.0000000
 keeping initial charge density in first step


--------------------------------------------------------------------------------------------------------


 Maximum index for non-local projection operator         7247
 Maximum index for augmentation-charges         4076 (set IRDMAX)


--------------------------------------------------------------------------------------------------------


 First call to EWALD:  gamma=   0.179
 Maximum number of real-space cells 4x 4x 1
 Maximum number of reciprocal cells 2x 2x 6

    FEWALD:  cpu time    0.0000: real time    0.0019


--------------------------------------- Iteration      1(   1)  ---------------------------------------


vdW kernel read from vdw_kernel.bindat
  0.0000  0.2424  0.5071  0.7962  1.1119  1.4567  1.8333  2.2446  2.6937  3.1842
  3.7199  4.3049  4.9438  5.6415  6.4036  7.2358  8.1446  9.1372 10.2212 11.4050
 12.6979 14.1099 15.6519 17.3360 19.1751 21.1837 23.3773 25.7729 28.3892 31.2465
 34.3669 37.7748 41.4965 45.5611 50.0000

    POTLOK:  cpu time  122.4880: real time  124.2898
    SETDIJ:  cpu time    0.0520: real time    0.0514
     EDDAV:  cpu time   20.4560: real time   20.5603
 BZINTS: Fermi energy:  6.127522; 56.000000 electrons
         Band energy:  15.076510;  BLOECHL correction: -0.064420
       DOS:  cpu time    0.0040: real time    0.0042
    --------------------------------------------
      LOOP:  cpu time  143.0000: real time  144.9056

 eigenvalue-minimisations  :   800
 total energy-change (2. order) : 0.4374037E+03  (-0.1591590E+04)
 number of electron      56.0000000 magnetization       6.0000000
 augmentation part       56.0000000 magnetization       6.0000000

 Free energy of the ion-electron system (eV)
  ---------------------------------------------------
  alpha Z        PSCENC =        22.20798002
  Ewald energy   TEWEN  =      5985.89955237
  -Hartree energ DENC   =     -8125.49843055
  -exchange      EXHF   =         0.00000000
  -V(xc)+E(xc)   XCENC  =        10.99941013
  PAW double counting   =      1130.07275399    -1036.43716354
  entropy T*S    EENTRO =         0.00000000
  eigenvalues    EBANDS =        15.07650970
  atomic energy  EATOM  =      2435.08307139
  Solvation  Ediel_sol  =         0.00000000
  ---------------------------------------------------
  free energy    TOTEN  =       437.40368350 eV

  energy without entropy =      437.40368350  energy(sigma->0) =      437.40368350


--------------------------------------------------------------------------------------------------------




--------------------------------------- Iteration      1(   2)  ---------------------------------------


     EDDAV:  cpu time   25.2640: real time   25.5462
 BZINTS: Fermi energy: -0.343771; 56.000000 electrons
         Band energy:-369.371724;  BLOECHL correction: -0.090478
       DOS:  cpu time    0.0000: real time    0.0039
    --------------------------------------------
      LOOP:  cpu time   25.2640: real time   25.5502

 eigenvalue-minimisations  :  1056
 total energy-change (2. order) :-0.3844482E+03  (-0.3675645E+03)
 number of electron      56.0000000 magnetization       6.0000000
 augmentation part       56.0000000 magnetization       6.0000000

 Free energy of the ion-electron system (eV)
  ---------------------------------------------------
  alpha Z        PSCENC =        22.20798002
  Ewald energy   TEWEN  =      5985.89955237
  -Hartree energ DENC   =     -8125.49843055
  -exchange      EXHF   =         0.00000000
  -V(xc)+E(xc)   XCENC  =        10.99941013
  PAW double counting   =      1130.07275399    -1036.43716354
  entropy T*S    EENTRO =         0.00000000
  eigenvalues    EBANDS =      -369.37172418
  atomic energy  EATOM  =      2435.08307139
  Solvation  Ediel_sol  =         0.00000000
  ---------------------------------------------------
  free energy    TOTEN  =        52.95544963 eV

  energy without entropy =       52.95544963  energy(sigma->0) =       52.95544963


--------------------------------------------------------------------------------------------------------




--------------------------------------- Iteration      1(   3)  ---------------------------------------


     EDDAV:  cpu time   28.0560: real time   28.3448
 BZINTS: Fermi energy: -2.232978; 56.000000 electrons
         Band energy:-471.107088;  BLOECHL correction: -0.018739
       DOS:  cpu time    0.0040: real time    0.0040
    --------------------------------------------
      LOOP:  cpu time   28.0600: real time   28.3487

 eigenvalue-minimisations  :  1184
 total energy-change (2. order) :-0.1017354E+03  (-0.9804534E+02)
 number of electron      56.0000000 magnetization       6.0000000
 augmentation part       56.0000000 magnetization       6.0000000

 Free energy of the ion-electron system (eV)
  ---------------------------------------------------
  alpha Z        PSCENC =        22.20798002
  Ewald energy   TEWEN  =      5985.89955237
  -Hartree energ DENC   =     -8125.49843055
  -exchange      EXHF   =         0.00000000
  -V(xc)+E(xc)   XCENC  =        10.99941013
  PAW double counting   =      1130.07275399    -1036.43716354
  entropy T*S    EENTRO =         0.00000000
  eigenvalues    EBANDS =      -471.10708848
  atomic energy  EATOM  =      2435.08307139
  Solvation  Ediel_sol  =         0.00000000
  ---------------------------------------------------
  free energy    TOTEN  =       -48.77991467 eV

  energy without entropy =      -48.77991467  energy(sigma->0) =      -48.77991467


--------------------------------------------------------------------------------------------------------




--------------------------------------- Iteration      1(   4)  ---------------------------------------


     EDDAV:  cpu time   26.7920: real time   27.1433
 BZINTS: Fermi energy: -2.366391; 56.000000 electrons
         Band energy:-480.061722;  BLOECHL correction:  0.000000
       DOS:  cpu time    0.0000: real time    0.0010
    --------------------------------------------
      LOOP:  cpu time   26.7920: real time   27.1443

 eigenvalue-minimisations  :  1128
 total energy-change (2. order) :-0.8954634E+01  (-0.8401676E+01)
 number of electron      56.0000000 magnetization       6.0000000
 augmentation part       56.0000000 magnetization       6.0000000

 Free energy of the ion-electron system (eV)
  ---------------------------------------------------
  alpha Z        PSCENC =        22.20798002
  Ewald energy   TEWEN  =      5985.89955237
  -Hartree energ DENC   =     -8125.49843055
  -exchange      EXHF   =         0.00000000
  -V(xc)+E(xc)   XCENC  =        10.99941013
  PAW double counting   =      1130.07275399    -1036.43716354
  entropy T*S    EENTRO =         0.00000000
  eigenvalues    EBANDS =      -480.06172229
  atomic energy  EATOM  =      2435.08307139
  Solvation  Ediel_sol  =         0.00000000
  ---------------------------------------------------
  free energy    TOTEN  =       -57.73454849 eV

  energy without entropy =      -57.73454849  energy(sigma->0) =      -57.73454849


--------------------------------------------------------------------------------------------------------




--------------------------------------- Iteration      1(   5)  ---------------------------------------


     EDDAV:  cpu time   46.9760: real time   48.1006
 BZINTS: Fermi energy: -2.369102; 56.000000 electrons
         Band energy:-480.519337;  BLOECHL correction:  0.000000
       DOS:  cpu time    0.0000: real time    0.0018
    CHARGE:  cpu time    3.1360: real time    3.4147
    MIXING:  cpu time    0.0480: real time    0.0564
    --------------------------------------------
      LOOP:  cpu time   50.1600: real time   51.5735

 eigenvalue-minimisations  :  1208
 total energy-change (2. order) :-0.4576143E+00  (-0.4530313E+00)
 number of electron      55.9999996 magnetization       5.5711250
 augmentation part       -5.4000792 magnetization       4.9277297

 Broyden mixing:
  rms(total) = 0.27934E+01    rms(broyden)= 0.27934E+01
  rms(prec ) = 0.31472E+01
  weight for this iteration     100.00

 Free energy of the ion-electron system (eV)
  ---------------------------------------------------
  alpha Z        PSCENC =        22.20798002
  Ewald energy   TEWEN  =      5985.89955237
  -Hartree energ DENC   =     -8125.49843055
  -exchange      EXHF   =         0.00000000
  -V(xc)+E(xc)   XCENC  =        10.99941013
  PAW double counting   =      1130.07275399    -1036.43716354
  entropy T*S    EENTRO =         0.00000000
  eigenvalues    EBANDS =      -480.51933663
  atomic energy  EATOM  =      2435.08307139
  Solvation  Ediel_sol  =         0.00000000
  ---------------------------------------------------
  free energy    TOTEN  =       -58.19216282 eV

  energy without entropy =      -58.19216282  energy(sigma->0) =      -58.19216282


--------------------------------------------------------------------------------------------------------




--------------------------------------- Iteration      1(   6)  ---------------------------------------


    POTLOK:  cpu time  100.8920: real time  102.0997
    SETDIJ:  cpu time    0.1000: real time    0.0977
     EDDAV:  cpu time   44.4120: real time   44.9709
 BZINTS: Fermi energy: -5.088078; 56.000000 electrons
         Band energy:-626.165025;  BLOECHL correction: -0.036504
       DOS:  cpu time    0.0040: real time    0.0051
    CHARGE:  cpu time    2.2360: real time    2.2405
    MIXING:  cpu time    0.0600: real time    0.0590
    --------------------------------------------
      LOOP:  cpu time  147.7040: real time  149.4728

 eigenvalue-minimisations  :  1072
 total energy-change (2. order) :-0.9344432E+02  (-0.6512965E+02)
 number of electron      55.9999993 magnetization       5.4432989
 augmentation part        9.4282828 magnetization       3.8675478

 Broyden mixing:
  rms(total) = 0.65335E+01    rms(broyden)= 0.65334E+01
  rms(prec ) = 0.73687E+01
  weight for this iteration     100.00

 eigenvalues of (default mixing * dielectric matrix)
  average eigenvalue GAMMA=   0.3003
  0.3003

 Free energy of the ion-electron system (eV)
  ---------------------------------------------------
  alpha Z        PSCENC =        22.20798002
  Ewald energy   TEWEN  =      5985.89955237
  -Hartree energ DENC   =     -8084.15462575
  -exchange      EXHF   =         0.00000000
  -V(xc)+E(xc)   XCENC  =        11.56125522
  PAW double counting   =      1055.72590102     -951.79459064
  entropy T*S    EENTRO =         0.00000000
  eigenvalues    EBANDS =      -626.16502451
  atomic energy  EATOM  =      2435.08307139
  Solvation  Ediel_sol  =         0.00000000
  ---------------------------------------------------
  free energy    TOTEN  =      -151.63648089 eV

  energy without entropy =     -151.63648089  energy(sigma->0) =     -151.63648089


--------------------------------------------------------------------------------------------------------




--------------------------------------- Iteration      1(   7)  ---------------------------------------


    POTLOK:  cpu time   98.5240: real time   99.0858
    SETDIJ:  cpu time    0.0800: real time    0.0898
     EDDAV:  cpu time   42.1760: real time   42.8464
 BZINTS: Fermi energy: -4.381844; 56.000000 electrons
         Band energy:-473.917618;  BLOECHL correction:  0.000000
       DOS:  cpu time    0.0000: real time    0.0011
    CHARGE:  cpu time    2.8760: real time    2.9142
    MIXING:  cpu time    0.0760: real time    0.0757
    --------------------------------------------
      LOOP:  cpu time  143.7320: real time  145.0132

 eigenvalue-minimisations  :  1024
 total energy-change (2. order) : 0.1076437E+03  (-0.1299303E+02)
 number of electron      55.9999995 magnetization       5.4655051
 augmentation part       -0.5492682 magnetization       3.1286747

 Broyden mixing:
  rms(total) = 0.19343E+01    rms(broyden)= 0.19342E+01
  rms(prec ) = 0.19482E+01
  weight for this iteration     100.00

 eigenvalues of (default mixing * dielectric matrix)
  average eigenvalue GAMMA=   0.2918
  0.2918  0.2918

 Free energy of the ion-electron system (eV)
  ---------------------------------------------------
  alpha Z        PSCENC =        22.20798002
  Ewald energy   TEWEN  =      5985.89955237
  -Hartree energ DENC   =     -8117.52298750
  -exchange      EXHF   =         0.00000000
  -V(xc)+E(xc)   XCENC  =        10.74367169
  PAW double counting   =      1123.81403542    -1030.30050041
  entropy T*S    EENTRO =         0.00000000
  eigenvalues    EBANDS =      -473.91761850
  atomic energy  EATOM  =      2435.08307139
  Solvation  Ediel_sol  =         0.00000000
  ---------------------------------------------------
  free energy    TOTEN  =       -43.99279551 eV

  energy without entropy =      -43.99279551  energy(sigma->0) =      -43.99279551


--------------------------------------------------------------------------------------------------------




--------------------------------------- Iteration      1(   8)  ---------------------------------------


    POTLOK:  cpu time   97.9080: real time   98.7805
    SETDIJ:  cpu time    0.0960: real time    0.0966
     EDDAV:  cpu time   38.7400: real time   39.1412
 BZINTS: Fermi energy: -4.603925; 56.000000 electrons
         Band energy:-477.632304;  BLOECHL correction:  0.000000
       DOS:  cpu time    0.0000: real time    0.0013
    CHARGE:  cpu time    3.2240: real time    3.2538
    MIXING:  cpu time    0.0920: real time    0.0926
    --------------------------------------------
      LOOP:  cpu time  140.0600: real time  141.3658

 eigenvalue-minimisations  :   936
 total energy-change (2. order) :-0.2515853E+01  (-0.1006543E+01)
 number of electron      55.9999995 magnetization       5.5121845
 augmentation part       -0.7228138 magnetization       3.3819761

 Broyden mixing:
  rms(total) = 0.12453E+01    rms(broyden)= 0.12453E+01
  rms(prec ) = 0.12608E+01
  weight for this iteration     100.00

 eigenvalues of (default mixing * dielectric matrix)
  average eigenvalue GAMMA=   0.4943
  0.5919  0.5919  0.2991

 Free energy of the ion-electron system (eV)
  ---------------------------------------------------
  alpha Z        PSCENC =        22.20798002
  Ewald energy   TEWEN  =      5985.89955237
  -Hartree energ DENC   =     -8116.94806722
  -exchange      EXHF   =         0.00000000
  -V(xc)+E(xc)   XCENC  =        11.15278204
  PAW double counting   =      1122.32183403    -1028.59349730
  entropy T*S    EENTRO =         0.00000000
  eigenvalues    EBANDS =      -477.63230432
  atomic energy  EATOM  =      2435.08307139
  Solvation  Ediel_sol  =         0.00000000
  ---------------------------------------------------
  free energy    TOTEN  =       -46.50864899 eV

  energy without entropy =      -46.50864899  energy(sigma->0) =      -46.50864899


--------------------------------------------------------------------------------------------------------




--------------------------------------- Iteration      1(   9)  ---------------------------------------


    POTLOK:  cpu time   99.0560: real time   99.4716
    SETDIJ:  cpu time    0.1200: real time    0.1207
     EDDAV:  cpu time   49.6360: real time   50.2790
 BZINTS: Fermi energy: -4.664015; 56.000000 electrons
         Band energy:-475.211726;  BLOECHL correction:  0.000000
       DOS:  cpu time    0.0000: real time    0.0026
    CHARGE:  cpu time    3.2160: real time    3.2617
    MIXING:  cpu time    0.0480: real time    0.0555
    --------------------------------------------
      LOOP:  cpu time  152.0760: real time  153.1909

 eigenvalue-minimisations  :  1216
 total energy-change (2. order) :-0.8389056E+00  (-0.9180000E-01)
 number of electron      55.9999995 magnetization       5.5778675
 augmentation part       -0.8636749 magnetization       3.8272867

 Broyden mixing:
  rms(total) = 0.78960E+00    rms(broyden)= 0.78960E+00
  rms(prec ) = 0.79715E+00
  weight for this iteration     100.00

 eigenvalues of (default mixing * dielectric matrix)
  average eigenvalue GAMMA=   0.6453
  0.8983  0.8983  0.3025  0.4819

 Free energy of the ion-electron system (eV)
  ---------------------------------------------------
  alpha Z        PSCENC =        22.20798002
  Ewald energy   TEWEN  =      5985.89955237
  -Hartree energ DENC   =     -8121.43213247
  -exchange      EXHF   =         0.00000000
  -V(xc)+E(xc)   XCENC  =        12.47107467
  PAW double counting   =      1129.64108171    -1036.00645654
  entropy T*S    EENTRO =         0.00000000
  eigenvalues    EBANDS =      -475.21172573
  atomic energy  EATOM  =      2435.08307139
  Solvation  Ediel_sol  =         0.00000000
  ---------------------------------------------------
  free energy    TOTEN  =       -47.34755458 eV

  energy without entropy =      -47.34755458  energy(sigma->0) =      -47.34755458


--------------------------------------------------------------------------------------------------------




--------------------------------------- Iteration      1(  10)  ---------------------------------------


    POTLOK:  cpu time   98.7520: real time   99.9156
    SETDIJ:  cpu time    0.0840: real time    0.0877
     EDDAV:  cpu time   49.9200: real time   50.9709
 BZINTS: Fermi energy: -4.638577; 56.000000 electrons
         Band energy:-474.936576;  BLOECHL correction:  0.000000
       DOS:  cpu time    0.0000: real time    0.0018
    CHARGE:  cpu time    2.8480: real time    2.9045
    MIXING:  cpu time    0.0600: real time    0.0602
    --------------------------------------------
      LOOP:  cpu time  151.6640: real time  153.9407

 eigenvalue-minimisations  :  1224
 total energy-change (2. order) :-0.2954529E+00  (-0.3109959E-01)
 number of electron      55.9999995 magnetization       5.6565855
 augmentation part       -0.8567680 magnetization       4.2172034

 Broyden mixing:
  rms(total) = 0.36860E+00    rms(broyden)= 0.36860E+00
  rms(prec ) = 0.37561E+00
  weight for this iteration     100.00

 eigenvalues of (default mixing * dielectric matrix)
  average eigenvalue GAMMA=   0.8547
  1.3400  1.3400  0.3010  0.6462  0.6462

 Free energy of the ion-electron system (eV)
  ---------------------------------------------------
  alpha Z        PSCENC =        22.20798002
  Ewald energy   TEWEN  =      5985.89955237
  -Hartree energ DENC   =     -8123.25243452
  -exchange      EXHF   =         0.00000000
  -V(xc)+E(xc)   XCENC  =        14.09065075
  PAW double counting   =      1129.77076323    -1036.50601432
  entropy T*S    EENTRO =         0.00000000
  eigenvalues    EBANDS =      -474.93657641
  atomic energy  EATOM  =      2435.08307139
  Solvation  Ediel_sol  =         0.00000000
  ---------------------------------------------------
  free energy    TOTEN  =       -47.64300749 eV

  energy without entropy =      -47.64300749  energy(sigma->0) =      -47.64300749


--------------------------------------------------------------------------------------------------------




--------------------------------------- Iteration      1(  11)  ---------------------------------------


    POTLOK:  cpu time   98.4520: real time  100.3831
    SETDIJ:  cpu time    0.0880: real time    0.0889
     EDDAV:  cpu time   49.8680: real time   50.9159
 BZINTS: Fermi energy: -4.660076; 56.000000 electrons
         Band energy:-475.384638;  BLOECHL correction:  0.000000
       DOS:  cpu time    0.0000: real time    0.0029
    CHARGE:  cpu time    2.4440: real time    2.4529
    MIXING:  cpu time    0.0880: real time    0.0875
    --------------------------------------------
      LOOP:  cpu time  150.9400: real time  153.9312

 eigenvalue-minimisations  :  1240
 total energy-change (2. order) :-0.8874454E-01  (-0.1330892E-01)
 number of electron      55.9999995 magnetization       5.7199626
 augmentation part       -0.9478964 magnetization       4.4434914

 Broyden mixing:
  rms(total) = 0.89940E-01    rms(broyden)= 0.89938E-01
  rms(prec ) = 0.93780E-01
  weight for this iteration     100.00

 eigenvalues of (default mixing * dielectric matrix)
  average eigenvalue GAMMA=   0.9291
  1.5304  0.3011  1.2838  1.1261  0.6664  0.6664

 Free energy of the ion-electron system (eV)
  ---------------------------------------------------
  alpha Z        PSCENC =        22.20798002
  Ewald energy   TEWEN  =      5985.89955237
  -Hartree energ DENC   =     -8124.02310388
  -exchange      EXHF   =         0.00000000
  -V(xc)+E(xc)   XCENC  =        15.48508698
  PAW double counting   =      1129.34322261    -1036.34292311
  entropy T*S    EENTRO =         0.00000000
  eigenvalues    EBANDS =      -475.38463840
  atomic energy  EATOM  =      2435.08307139
  Solvation  Ediel_sol  =         0.00000000
  ---------------------------------------------------
  free energy    TOTEN  =       -47.73175203 eV

  energy without entropy =      -47.73175203  energy(sigma->0) =      -47.73175203


--------------------------------------------------------------------------------------------------------




--------------------------------------- Iteration      1(  12)  ---------------------------------------


    POTLOK:  cpu time   98.6160: real time  100.3972
    SETDIJ:  cpu time    0.0760: real time    0.0754
     EDDAV:  cpu time   47.4520: real time   47.8495
 BZINTS: Fermi energy: -4.649565; 56.000000 electrons
         Band energy:-475.406367;  BLOECHL correction:  0.000000
       DOS:  cpu time    0.0040: real time    0.0023
    CHARGE:  cpu time    2.6520: real time    2.6809
    MIXING:  cpu time    0.1040: real time    0.1033
    --------------------------------------------
      LOOP:  cpu time  148.9040: real time  151.1088

 eigenvalue-minimisations  :  1176
 total energy-change (2. order) :-0.1910374E-02  (-0.4144233E-02)
 number of electron      55.9999995 magnetization       5.7744442
 augmentation part       -1.0163004 magnetization       4.4875354

 Broyden mixing:
  rms(total) = 0.47663E-01    rms(broyden)= 0.47662E-01
  rms(prec ) = 0.48543E-01
  weight for this iteration     100.00

 eigenvalues of (default mixing * dielectric matrix)
  average eigenvalue GAMMA=   1.0738
  2.4526  1.3691  1.3691  0.3011  0.7104  0.7104  0.6042

 Free energy of the ion-electron system (eV)
  ---------------------------------------------------
  alpha Z        PSCENC =        22.20798002
  Ewald energy   TEWEN  =      5985.89955237
  -Hartree energ DENC   =     -8124.06513367
  -exchange      EXHF   =         0.00000000
  -V(xc)+E(xc)   XCENC  =        15.81713215
  PAW double counting   =      1128.29275595    -1035.56265332
  entropy T*S    EENTRO =         0.00000000
  eigenvalues    EBANDS =      -475.40636730
  atomic energy  EATOM  =      2435.08307139
  Solvation  Ediel_sol  =         0.00000000
  ---------------------------------------------------
  free energy    TOTEN  =       -47.73366241 eV

  energy without entropy =      -47.73366241  energy(sigma->0) =      -47.73366241


--------------------------------------------------------------------------------------------------------




--------------------------------------- Iteration      1(  13)  ---------------------------------------


    POTLOK:  cpu time   98.2920: real time   98.9848
    SETDIJ:  cpu time    0.0760: real time    0.0756
     EDDAV:  cpu time   45.0880: real time   45.5626
 BZINTS: Fermi energy: -4.629428; 56.000000 electrons
         Band energy:-475.420793;  BLOECHL correction:  0.000000
       DOS:  cpu time    0.0000: real time    0.0028
    CHARGE:  cpu time    3.4600: real time    3.5225
    MIXING:  cpu time    0.1040: real time    0.1036
    --------------------------------------------
      LOOP:  cpu time  147.0200: real time  148.2519

 eigenvalue-minimisations  :  1128
 total energy-change (2. order) :-0.8973808E-02  (-0.1025353E-02)
 number of electron      55.9999995 magnetization       5.7999505
 augmentation part       -1.0410030 magnetization       4.4879736

 Broyden mixing:
  rms(total) = 0.28998E-01    rms(broyden)= 0.28998E-01
  rms(prec ) = 0.30943E-01
  weight for this iteration     100.00

 eigenvalues of (default mixing * dielectric matrix)
  average eigenvalue GAMMA=   1.0736
  2.4477  1.4457  1.4457  0.3011  0.7981  0.7981  0.7321  0.6207

 Free energy of the ion-electron system (eV)
  ---------------------------------------------------
  alpha Z        PSCENC =        22.20798002
  Ewald energy   TEWEN  =      5985.89955237
  -Hartree energ DENC   =     -8123.92662420
  -exchange      EXHF   =         0.00000000
  -V(xc)+E(xc)   XCENC  =        15.66010670
  PAW double counting   =      1128.41136478    -1035.65729417
  entropy T*S    EENTRO =         0.00000000
  eigenvalues    EBANDS =      -475.42079310
  atomic energy  EATOM  =      2435.08307139
  Solvation  Ediel_sol  =         0.00000000
  ---------------------------------------------------
  free energy    TOTEN  =       -47.74263621 eV

  energy without entropy =      -47.74263621  energy(sigma->0) =      -47.74263621


--------------------------------------------------------------------------------------------------------




--------------------------------------- Iteration      1(  14)  ---------------------------------------


    POTLOK:  cpu time   97.8200: real time   98.1739
    SETDIJ:  cpu time    0.0760: real time    0.0763
     EDDAV:  cpu time   44.1440: real time   44.6462
 BZINTS: Fermi energy: -4.640986; 56.000000 electrons
         Band energy:-475.496395;  BLOECHL correction:  0.000000
       DOS:  cpu time    0.0040: real time    0.0032
    CHARGE:  cpu time    2.6840: real time    2.6876
    MIXING:  cpu time    0.0560: real time    0.0545
    --------------------------------------------
      LOOP:  cpu time  144.7840: real time  145.6415

 eigenvalue-minimisations  :  1080
 total energy-change (2. order) : 0.9050643E-03  (-0.4776431E-03)
 number of electron      55.9999995 magnetization       5.8238781
 augmentation part       -1.0108137 magnetization       4.5170111

 Broyden mixing:
  rms(total) = 0.38964E-01    rms(broyden)= 0.38964E-01
  rms(prec ) = 0.39111E-01
  weight for this iteration     100.00

 eigenvalues of (default mixing * dielectric matrix)
  average eigenvalue GAMMA=   1.0958
  2.0531  2.0531  1.3282  1.3282  0.3011  0.7704  0.7704  0.6288  0.6288

 Free energy of the ion-electron system (eV)
  ---------------------------------------------------
  alpha Z        PSCENC =        22.20798002
  Ewald energy   TEWEN  =      5985.89955237
  -Hartree energ DENC   =     -8123.76671601
  -exchange      EXHF   =         0.00000000
  -V(xc)+E(xc)   XCENC  =        15.55728542
  PAW double counting   =      1128.08679039    -1035.31329941
  entropy T*S    EENTRO =         0.00000000
  eigenvalues    EBANDS =      -475.49639532
  atomic energy  EATOM  =      2435.08307139
  Solvation  Ediel_sol  =         0.00000000
  ---------------------------------------------------
  free energy    TOTEN  =       -47.74173115 eV

  energy without entropy =      -47.74173115  energy(sigma->0) =      -47.74173115


--------------------------------------------------------------------------------------------------------




--------------------------------------- Iteration      1(  15)  ---------------------------------------


    POTLOK:  cpu time   98.6120: real time   99.0140
    SETDIJ:  cpu time    0.0880: real time    0.0869
     EDDAV:  cpu time   41.2960: real time   41.9888
 BZINTS: Fermi energy: -4.643291; 56.000000 electrons
         Band energy:-475.425897;  BLOECHL correction:  0.000000
       DOS:  cpu time    0.0000: real time    0.0020
    CHARGE:  cpu time    2.1520: real time    2.2001
    MIXING:  cpu time    0.0600: real time    0.0626
    --------------------------------------------
      LOOP:  cpu time  142.2080: real time  143.3544

 eigenvalue-minimisations  :   992
 total energy-change (2. order) :-0.2931673E-02  (-0.2890730E-03)
 number of electron      55.9999995 magnetization       5.8843921
 augmentation part       -0.9950350 magnetization       4.5938158

 Broyden mixing:
  rms(total) = 0.30905E-01    rms(broyden)= 0.30905E-01
  rms(prec ) = 0.31457E-01
  weight for this iteration     100.00

 eigenvalues of (default mixing * dielectric matrix)
  average eigenvalue GAMMA=   1.1904
  2.5141  2.5141  1.4170  1.4170  0.3011  0.8755  0.8755  0.6871  0.6871  0.6156

 Free energy of the ion-electron system (eV)
  ---------------------------------------------------
  alpha Z        PSCENC =        22.20798002
  Ewald energy   TEWEN  =      5985.89955237
  -Hartree energ DENC   =     -8123.90676875
  -exchange      EXHF   =         0.00000000
  -V(xc)+E(xc)   XCENC  =        15.61925586
  PAW double counting   =      1128.22869238    -1035.45054944
  entropy T*S    EENTRO =         0.00000000
  eigenvalues    EBANDS =      -475.42589665
  atomic energy  EATOM  =      2435.08307139
  Solvation  Ediel_sol  =         0.00000000
  ---------------------------------------------------
  free energy    TOTEN  =       -47.74466282 eV

  energy without entropy =      -47.74466282  energy(sigma->0) =      -47.74466282


--------------------------------------------------------------------------------------------------------




--------------------------------------- Iteration      1(  16)  ---------------------------------------


    POTLOK:  cpu time   97.9520: real time   98.5799
    SETDIJ:  cpu time    0.1000: real time    0.0982
     EDDAV:  cpu time   39.4440: real time   40.1101
 BZINTS: Fermi energy: -4.637643; 56.000000 electrons
         Band energy:-475.277321;  BLOECHL correction:  0.000000
       DOS:  cpu time    0.0000: real time    0.0016
    CHARGE:  cpu time    2.9720: real time    2.9950
    MIXING:  cpu time    0.0680: real time    0.0668
    --------------------------------------------
      LOOP:  cpu time  140.5360: real time  141.8516

 eigenvalue-minimisations  :   912
 total energy-change (2. order) :-0.5260598E-03  (-0.3012150E-03)
 number of electron      55.9999995 magnetization       5.9313941
 augmentation part       -1.0020489 magnetization       4.6405010

 Broyden mixing:
  rms(total) = 0.17417E-01    rms(broyden)= 0.17417E-01
  rms(prec ) = 0.17714E-01
  weight for this iteration     100.00

 eigenvalues of (default mixing * dielectric matrix)
  average eigenvalue GAMMA=   1.2974
  3.5525  2.8626  1.4583  1.4583  0.3011  0.9681  0.9681  0.7234  0.7234  0.6278
  0.6278

 Free energy of the ion-electron system (eV)
  ---------------------------------------------------
  alpha Z        PSCENC =        22.20798002
  Ewald energy   TEWEN  =      5985.89955237
  -Hartree energ DENC   =     -8124.08248510
  -exchange      EXHF   =         0.00000000
  -V(xc)+E(xc)   XCENC  =        15.67345730
  PAW double counting   =      1128.31998823    -1035.56943187
  entropy T*S    EENTRO =         0.00000000
  eigenvalues    EBANDS =      -475.27732122
  atomic energy  EATOM  =      2435.08307139
  Solvation  Ediel_sol  =         0.00000000
  ---------------------------------------------------
  free energy    TOTEN  =       -47.74518888 eV

  energy without entropy =      -47.74518888  energy(sigma->0) =      -47.74518888


--------------------------------------------------------------------------------------------------------




--------------------------------------- Iteration      1(  17)  ---------------------------------------


    POTLOK:  cpu time   98.7440: real time   99.1789
    SETDIJ:  cpu time    0.0920: real time    0.0923
     EDDAV:  cpu time   38.2000: real time   38.7054
 BZINTS: Fermi energy: -4.624772; 56.000000 electrons
         Band energy:-475.224747;  BLOECHL correction:  0.000000
       DOS:  cpu time    0.0040: real time    0.0025
    CHARGE:  cpu time    3.2720: real time    3.3981
    MIXING:  cpu time    0.1160: real time    0.1151
    --------------------------------------------
      LOOP:  cpu time  140.4280: real time  141.4924

 eigenvalue-minimisations  :   896
 total energy-change (2. order) : 0.1087871E-02  (-0.9750852E-04)
 number of electron      55.9999995 magnetization       5.9727834
 augmentation part       -1.0054591 magnetization       4.6826276

 Broyden mixing:
  rms(total) = 0.12341E-01    rms(broyden)= 0.12341E-01
  rms(prec ) = 0.12486E-01
  weight for this iteration     100.00

 eigenvalues of (default mixing * dielectric matrix)
  average eigenvalue GAMMA=   1.4318
  5.4879  2.6192  1.4851  1.4851  1.1332  1.1332  0.3011  0.7940  0.7940  0.6690
  0.6690  0.6103

 Free energy of the ion-electron system (eV)
  ---------------------------------------------------
  alpha Z        PSCENC =        22.20798002
  Ewald energy   TEWEN  =      5985.89955237
  -Hartree energ DENC   =     -8124.15681174
  -exchange      EXHF   =         0.00000000
  -V(xc)+E(xc)   XCENC  =        15.69338858
  PAW double counting   =      1128.32831555    -1035.57484980
  entropy T*S    EENTRO =         0.00000000
  eigenvalues    EBANDS =      -475.22474738
  atomic energy  EATOM  =      2435.08307139
  Solvation  Ediel_sol  =         0.00000000
  ---------------------------------------------------
  free energy    TOTEN  =       -47.74410101 eV

  energy without entropy =      -47.74410101  energy(sigma->0) =      -47.74410101


--------------------------------------------------------------------------------------------------------




--------------------------------------- Iteration      1(  18)  ---------------------------------------


    POTLOK:  cpu time   97.9320: real time   98.4742
    SETDIJ:  cpu time    0.1120: real time    0.1135
     EDDAV:  cpu time   38.0320: real time   38.5677
 BZINTS: Fermi energy: -4.665659; 56.000000 electrons
         Band energy:-475.197808;  BLOECHL correction:  0.000000
       DOS:  cpu time    0.0040: real time    0.0015
    CHARGE:  cpu time    3.3560: real time    3.3754
    MIXING:  cpu time    0.0840: real time    0.0841
    --------------------------------------------
      LOOP:  cpu time  139.5200: real time  140.6165

 eigenvalue-minimisations  :   888
 total energy-change (2. order) : 0.2464433E-02  (-0.3755567E-04)
 number of electron      55.9999995 magnetization       5.9974970
 augmentation part       -1.0065867 magnetization       4.7107325

 Broyden mixing:
  rms(total) = 0.36055E-02    rms(broyden)= 0.36055E-02
  rms(prec ) = 0.37377E-02
  weight for this iteration     100.00

 eigenvalues of (default mixing * dielectric matrix)
  average eigenvalue GAMMA=   1.6322
  7.9943  2.5327  1.9879  1.4452  1.4452  0.3011  0.9879  0.9879  0.7750  0.7750
  0.6126  0.6868  0.6868

 Free energy of the ion-electron system (eV)
  ---------------------------------------------------
  alpha Z        PSCENC =        22.20798002
  Ewald energy   TEWEN  =      5985.89955237
  -Hartree energ DENC   =     -8124.22354194
  -exchange      EXHF   =         0.00000000
  -V(xc)+E(xc)   XCENC  =        15.73728944
  PAW double counting   =      1128.27208767    -1035.52026734
  entropy T*S    EENTRO =         0.00000000
  eigenvalues    EBANDS =      -475.19780818
  atomic energy  EATOM  =      2435.08307139
  Solvation  Ediel_sol  =         0.00000000
  ---------------------------------------------------
  free energy    TOTEN  =       -47.74163658 eV

  energy without entropy =      -47.74163658  energy(sigma->0) =      -47.74163658


--------------------------------------------------------------------------------------------------------




--------------------------------------- Iteration      1(  19)  ---------------------------------------


    POTLOK:  cpu time   99.7800: real time  100.3384
    SETDIJ:  cpu time    0.0840: real time    0.0837
     EDDAV:  cpu time   32.3480: real time   32.6905
 BZINTS: Fermi energy: -4.623284; 56.000000 electrons
         Band energy:-475.163096;  BLOECHL correction:  0.000000
       DOS:  cpu time    0.0000: real time    0.0022
    CHARGE:  cpu time    3.2280: real time    3.2544
    MIXING:  cpu time    0.0960: real time    0.0966
    --------------------------------------------
      LOOP:  cpu time  135.5360: real time  136.4659

 eigenvalue-minimisations  :   720
 total energy-change (2. order) : 0.1039762E-02  (-0.1318692E-04)
 number of electron      55.9999995 magnetization       5.9995621
 augmentation part       -1.0080631 magnetization       4.7138419

 Broyden mixing:
  rms(total) = 0.18489E-02    rms(broyden)= 0.18488E-02
  rms(prec ) = 0.19038E-02
  weight for this iteration     100.00

 eigenvalues of (default mixing * dielectric matrix)
  average eigenvalue GAMMA=   1.7066
  9.2034  2.7711  2.2269  1.4686  1.4686  0.3011  1.0443  1.0443  0.8483  0.8483
  0.7087  0.7087  0.6221  0.6276

 Free energy of the ion-electron system (eV)
  ---------------------------------------------------
  alpha Z        PSCENC =        22.20798002
  Ewald energy   TEWEN  =      5985.89955237
  -Hartree energ DENC   =     -8124.27799094
  -exchange      EXHF   =         0.00000000
  -V(xc)+E(xc)   XCENC  =        15.75694896
  PAW double counting   =      1128.27988526    -1035.52694804
  entropy T*S    EENTRO =         0.00000000
  eigenvalues    EBANDS =      -475.16309583
  atomic energy  EATOM  =      2435.08307139
  Solvation  Ediel_sol  =         0.00000000
  ---------------------------------------------------
  free energy    TOTEN  =       -47.74059682 eV

  energy without entropy =      -47.74059682  energy(sigma->0) =      -47.74059682


--------------------------------------------------------------------------------------------------------




--------------------------------------- Iteration      1(  20)  ---------------------------------------


    POTLOK:  cpu time   98.5520: real time   98.7008
    SETDIJ:  cpu time    0.0600: real time    0.0603
     EDDAV:  cpu time   29.3760: real time   29.5921
 BZINTS: Fermi energy: -4.627968; 56.000000 electrons
         Band energy:-475.146814;  BLOECHL correction:  0.000000
       DOS:  cpu time    0.0040: real time    0.0018
    CHARGE:  cpu time    3.2120: real time    3.2152
    MIXING:  cpu time    0.0880: real time    0.0901
    --------------------------------------------
      LOOP:  cpu time  131.2920: real time  131.6602

 eigenvalue-minimisations  :   632
 total energy-change (2. order) :-0.1260204E-03  (-0.4697136E-05)
 number of electron      55.9999995 magnetization       5.9994950
 augmentation part       -1.0080851 magnetization       4.7133139

 Broyden mixing:
  rms(total) = 0.87033E-03    rms(broyden)= 0.87033E-03
  rms(prec ) = 0.94155E-03
  weight for this iteration     100.00

 eigenvalues of (default mixing * dielectric matrix)
  average eigenvalue GAMMA=   1.6600
  9.2393  2.7537  2.2917  1.4685  1.4685  0.3011  1.1254  1.1254  0.8953  0.8953
  0.7246  0.7246  0.6441  0.6441  0.5994

 Free energy of the ion-electron system (eV)
  ---------------------------------------------------
  alpha Z        PSCENC =        22.20798002
  Ewald energy   TEWEN  =      5985.89955237
  -Hartree energ DENC   =     -8124.29068756
  -exchange      EXHF   =         0.00000000
  -V(xc)+E(xc)   XCENC  =        15.75212443
  PAW double counting   =      1128.30290117    -1035.54885036
  entropy T*S    EENTRO =         0.00000000
  eigenvalues    EBANDS =      -475.14681430
  atomic energy  EATOM  =      2435.08307139
  Solvation  Ediel_sol  =         0.00000000
  ---------------------------------------------------
  free energy    TOTEN  =       -47.74072284 eV

  energy without entropy =      -47.74072284  energy(sigma->0) =      -47.74072284


--------------------------------------------------------------------------------------------------------




--------------------------------------- Iteration      1(  21)  ---------------------------------------


    POTLOK:  cpu time  100.0800: real time  101.0142
    SETDIJ:  cpu time    0.0480: real time    0.0499
     EDDAV:  cpu time   25.3600: real time   25.6527
 BZINTS: Fermi energy: -4.626846; 56.000000 electrons
         Band energy:-475.131597;  BLOECHL correction:  0.000000
       DOS:  cpu time    0.0000: real time    0.0010
    --------------------------------------------
      LOOP:  cpu time  125.4880: real time  126.7178

 eigenvalue-minimisations  :   632
 total energy-change (2. order) :-0.6668808E-04  (-0.1961928E-05)
 number of electron      55.9999995 magnetization       5.9994950
 augmentation part       -1.0080851 magnetization       4.7133139

 Free energy of the ion-electron system (eV)
  ---------------------------------------------------
  alpha Z        PSCENC =        22.20798002
  Ewald energy   TEWEN  =      5985.89955237
  -Hartree energ DENC   =     -8124.30218673
  -exchange      EXHF   =         0.00000000
  -V(xc)+E(xc)   XCENC  =        15.74956033
  PAW double counting   =      1128.31255626    -1035.55972625
  entropy T*S    EENTRO =         0.00000000
  eigenvalues    EBANDS =      -475.13159692
  atomic energy  EATOM  =      2435.08307139
  Solvation  Ediel_sol  =         0.00000000
  ---------------------------------------------------
  free energy    TOTEN  =       -47.74078953 eV

  energy without entropy =      -47.74078953  energy(sigma->0) =      -47.74078953


--------------------------------------------------------------------------------------------------------




 average (electrostatic) potential at core
  the test charge radii are     1.1394  1.1631  0.9698
  (the norm of the test charge is              1.0000)
       1 -52.7287       2 -52.7287       3 -41.3767       4 -41.3767       5 -95.1313
       6 -95.1312       7 -95.1312       8 -95.1313       9 -95.1312      10 -95.1312



 E-fermi :  -4.6268     XC(G=0):  -3.0906     alpha+bet : -2.0866


 spin component 1

 k-point     1 :       0.0000    0.0000    0.0000
  band No.  band energies     occupation 
      1     -16.3419      1.00000
      2     -15.8280      1.00000
      3     -15.3591      1.00000
      4     -15.3591      1.00000
      5     -15.3272      1.00000
      6     -15.3271      1.00000
      7     -12.8000      1.00000
      8     -10.3990      1.00000
      9      -7.6051      1.00000
     10      -7.6051      1.00000
     11      -7.4901      1.00000
     12      -7.3340      1.00000
     13      -7.1536      1.00000
     14      -7.1536      1.00000
     15      -6.3386      1.00000
     16      -6.2003      1.00000
     17      -6.2003      1.00000
     18      -5.9911      1.00000
     19      -5.9910      1.00000
     20      -5.7487      1.00000
     21      -5.4139      1.00000
     22      -5.4139      1.00000
     23      -5.1910      1.00000
     24      -5.1061      1.00000
     25      -5.1061      1.00000
     26      -5.1028      1.00000
     27      -5.1028      1.00000
     28      -5.0977      1.00000
     29      -4.7228      1.00000
     30      -4.6881      1.00000
     31      -4.6880      1.00000
     32      -3.7038      0.00000
     33      -3.4462      0.00000
     34      -3.4462      0.00000
     35      -3.2192      0.00000
     36      -3.2192      0.00000
     37      -3.1688      0.00000
     38      -1.1169      0.00000
     39      -1.1169      0.00000
     40       0.3222      0.00000

 k-point     2 :       0.2000    0.0000    0.0000
  band No.  band energies     occupation 
      1     -16.2630      1.00000
      2     -15.7781      1.00000
      3     -15.4470      1.00000
      4     -15.3977      1.00000
      5     -15.3670      1.00000
      6     -15.3483      1.00000
      7     -12.7700      1.00000
      8     -10.4352      1.00000
      9      -7.5721      1.00000
     10      -7.5602      1.00000
     11      -7.4475      1.00000
     12      -7.2569      1.00000
     13      -6.9221      1.00000
     14      -6.7450      1.00000
     15      -6.3587      1.00000
     16      -6.2601      1.00000
     17      -6.2318      1.00000
     18      -6.1646      1.00000
     19      -5.7949      1.00000
     20      -5.7286      1.00000
     21      -5.6551      1.00000
     22      -5.6388      1.00000
     23      -5.2585      1.00000
     24      -5.2319      1.00000
     25      -5.1425      1.00000
     26      -5.1248      1.00000
     27      -5.0607      1.00000
     28      -5.0315      1.00000
     29      -4.9694      1.00000
     30      -4.7469      1.00000
     31      -4.6674      1.00000
     32      -3.9124      0.00000
     33      -3.4385      0.00000
     34      -3.4344      0.00000
     35      -3.2893      0.00000
     36      -3.0838      0.00000
     37      -2.8473      0.00000
     38      -1.2221      0.00000
     39      -1.1420      0.00000
     40       0.3322      0.00000

 k-point     3 :       0.4000    0.0000    0.0000
  band No.  band energies     occupation 
      1     -16.0604      1.00000
      2     -15.6825      1.00000
      3     -15.6572      1.00000
      4     -15.4646      1.00000
      5     -15.4192      1.00000
      6     -15.4127      1.00000
      7     -12.7186      1.00000
      8     -10.4831      1.00000
      9      -7.5510      1.00000
     10      -7.4440      1.00000
     11      -7.1453      1.00000
     12      -6.8815      1.00000
     13      -6.5137      1.00000
     14      -6.5039      1.00000
     15      -6.4061      1.00000
     16      -6.3692      1.00000
     17      -6.3125      1.00000
     18      -6.3047      1.00000
     19      -6.0359      1.00000
     20      -5.9350      1.00000
     21      -5.8706      1.00000
     22      -5.4824      1.00000
     23      -5.4307      1.00000
     24      -5.3752      1.00000
     25      -5.2214      1.00000
     26      -5.1571      1.00000
     27      -5.1558      1.00000
     28      -4.9354      1.00000
     29      -4.8737      1.00000
     30      -4.8652      1.00000
     31      -4.7481      1.00000
     32      -3.8621      0.00000
     33      -3.4846      0.00000
     34      -3.4452      0.00000
     35      -3.4399      0.00000
     36      -3.2541      0.00000
     37      -2.6065      0.00000
     38      -1.2755      0.00000
     39      -1.2494      0.00000
     40       0.0005      0.00000

 k-point     4 :       0.4000    0.2000    0.0000
  band No.  band energies     occupation 
      1     -16.1195      1.00000
      2     -15.6919      1.00000
      3     -15.5589      1.00000
      4     -15.5108      1.00000
      5     -15.4195      1.00000
      6     -15.3792      1.00000
      7     -12.7263      1.00000
      8     -10.4731      1.00000
      9      -7.5995      1.00000
     10      -7.3428      1.00000
     11      -7.3225      1.00000
     12      -7.0182      1.00000
     13      -6.5841      1.00000
     14      -6.4468      1.00000
     15      -6.4043      1.00000
     16      -6.3630      1.00000
     17      -6.2970      1.00000
     18      -6.1983      1.00000
     19      -6.0230      1.00000
     20      -5.9551      1.00000
     21      -5.9061      1.00000
     22      -5.5142      1.00000
     23      -5.3568      1.00000
     24      -5.3015      1.00000
     25      -5.2051      1.00000
     26      -5.1211      1.00000
     27      -5.0626      1.00000
     28      -5.0192      1.00000
[...]
     18      -5.7496      1.00000
     19      -5.7107      1.00000
     20      -5.2642      1.00000
     21      -5.2143      1.00000
     22      -4.7850      1.00000
     23      -4.6473      1.00000
     24      -4.3263      1.00000
     25      -3.7053      1.00000
     26      -2.2317      0.00000
     27      -1.6483      0.00000
     28      -1.4791      0.00000
     29      -1.4245      0.00000
     30      -1.1192      0.00000
     31      -0.9628      0.00000
     32      -0.9255      0.00000
     33      -0.3846      0.00000
     34      -0.3242      0.00000
     35      -0.2949      0.00000
     36      -0.1347      0.00000
     37       0.3841      0.00000
     38       1.1289      0.00000
     39       1.3007      0.00000
     40       1.8797      0.00000

 k-point     5 :      -0.4000    0.2000    0.0000
  band No.  band energies     occupation 
      1     -16.6462      1.00000
      2     -16.1211      1.00000
      3     -15.9366      1.00000
      4     -15.7647      1.00000
      5     -15.5725      1.00000
      6     -15.4325      1.00000
      7     -11.5431      1.00000
      8     -10.0767      1.00000
      9      -7.9342      1.00000
     10      -7.5151      1.00000
     11      -7.3932      1.00000
     12      -6.9588      1.00000
     13      -6.8212      1.00000
     14      -6.4041      1.00000
     15      -6.1061      1.00000
     16      -5.8699      1.00000
     17      -5.7886      1.00000
     18      -5.6754      1.00000
     19      -5.6349      1.00000
     20      -5.3829      1.00000
     21      -5.2584      1.00000
     22      -4.6906      1.00000
     23      -4.5533      1.00000
     24      -4.4843      1.00000
     25      -3.8807      1.00000
     26      -2.5552      0.00000
     27      -1.7290      0.00000
     28      -1.7081      0.00000
     29      -1.4510      0.00000
     30      -1.1071      0.00000
     31      -0.9433      0.00000
     32      -0.9128      0.00000
     33      -0.5251      0.00000
     34      -0.5063      0.00000
     35      -0.1633      0.00000
     36      -0.1375      0.00000
     37       0.5761      0.00000
     38       0.8951      0.00000
     39       1.1264      0.00000
     40       1.9510      0.00000


--------------------------------------------------------------------------------------------------------


 soft charge-density along one line, spin component           1
         0         1         2         3         4         5         6         7         8         9
 total charge-density along one line

 soft charge-density along one line, spin component           2
         0         1         2         3         4         5         6         7         8         9
 total charge-density along one line

 pseudopotential strength for first ion, spin component:           1
 -9.084   0.103  -0.000  -0.000   0.000   0.766  -0.028   0.000
  0.103  -9.005   0.000   0.000  -0.000  -0.028   0.745  -0.000
 -0.000   0.000  -9.168   0.000   0.000   0.000  -0.000   0.789
 -0.000   0.000   0.000  -9.005  -0.103   0.000  -0.000  -0.000
  0.000  -0.000   0.000  -0.103  -9.084  -0.000   0.000  -0.000
  0.766  -0.028   0.000   0.000  -0.000   0.340   0.007  -0.000
 -0.028   0.745  -0.000  -0.000   0.000   0.007   0.346   0.000
  0.000  -0.000   0.789  -0.000  -0.000  -0.000   0.000   0.335
  0.000  -0.000  -0.000   0.745   0.028  -0.000   0.000   0.000
 -0.000   0.000  -0.000   0.028   0.766   0.000  -0.000   0.000
 -0.000  -0.000   0.001  -0.000   0.000  -0.000   0.000  -0.000
  0.000   0.000  -0.000   0.000  -0.000  -0.000  -0.000   0.000
 -0.000  -0.000   0.000  -0.000   0.001   0.000   0.000  -0.000
 -0.000  -0.000  -0.000  -0.000  -0.000   0.000   0.000   0.000
  0.001  -0.000   0.000  -0.000   0.000  -0.000   0.000  -0.000
  0.000   0.000  -0.000   0.000  -0.001  -0.000  -0.000   0.000
  0.000   0.000   0.000   0.000   0.000  -0.000  -0.000  -0.000
 -0.001   0.000  -0.000   0.000  -0.000   0.000  -0.000   0.000
 pseudopotential strength for first ion, spin component:           2
 -7.469  -0.193  -0.000   0.000  -0.000   0.310   0.050   0.000
 -0.193  -7.655   0.000   0.000   0.000   0.050   0.359  -0.000
 -0.000   0.000  -7.341   0.000   0.000   0.000  -0.000   0.276
  0.000   0.000   0.000  -7.655   0.193  -0.000  -0.000  -0.000
 -0.000   0.000   0.000   0.193  -7.469   0.000  -0.000  -0.000
  0.310   0.050   0.000  -0.000   0.000   0.465  -0.013  -0.000
  0.050   0.359  -0.000  -0.000  -0.000  -0.013   0.453   0.000
  0.000  -0.000   0.276  -0.000  -0.000  -0.000   0.000   0.474
 -0.000  -0.000  -0.000   0.359  -0.050   0.000   0.000   0.000
  0.000  -0.000  -0.000  -0.050   0.310  -0.000   0.000   0.000
 -0.000  -0.000   0.006  -0.000   0.000  -0.000   0.000  -0.001
  0.000   0.000  -0.001   0.000  -0.000  -0.000  -0.000   0.000
  0.000  -0.000   0.000  -0.000   0.000  -0.000   0.000  -0.000
 -0.000  -0.000  -0.000  -0.000   0.000   0.000   0.000   0.000
  0.000  -0.000   0.000  -0.000  -0.000   0.000   0.000  -0.000
  0.000   0.000  -0.000   0.000  -0.001   0.000  -0.000   0.000
  0.000   0.000   0.000   0.000  -0.000  -0.000  -0.000  -0.000
 -0.001   0.000  -0.000   0.000  -0.000   0.000  -0.000   0.000
 total augmentation occupancy for first ion, spin component:           1
  0.982  -0.067   0.000   0.000  -0.000   0.041   0.264  -0.000  -0.000   0.000  -0.000  -0.000  -0.000   0.000   0.007   0.000
 -0.067   0.900  -0.000  -0.000   0.000   0.263   0.296   0.000  -0.000  -0.000   0.000  -0.000  -0.000   0.000   0.002   0.000
  0.000  -0.000   1.049  -0.000  -0.000  -0.000   0.000  -0.143   0.000   0.000  -0.011  -0.018  -0.000   0.000   0.000   0.000
  0.000  -0.000  -0.000   0.900   0.067  -0.000   0.000   0.000   0.296  -0.263   0.000   0.000  -0.002  -0.000  -0.000  -0.000
 -0.000   0.000  -0.000   0.067   0.982  -0.000  -0.000   0.000  -0.264   0.041   0.000   0.000   0.007  -0.000   0.000  -0.001
  0.041   0.263  -0.000  -0.000  -0.000   0.218   0.090   0.000  -0.000  -0.000   0.000  -0.000  -0.000   0.000   0.028   0.000
  0.264   0.296   0.000   0.000  -0.000   0.090   0.314   0.000  -0.000  -0.000  -0.000  -0.000  -0.000  -0.000  -0.005   0.000
 -0.000   0.000  -0.143   0.000   0.000   0.000   0.000   0.214   0.000  -0.000   0.055  -0.010  -0.000   0.000   0.000   0.000
 -0.000  -0.000   0.000   0.296  -0.264  -0.000  -0.000   0.000   0.314  -0.090  -0.000  -0.000   0.005   0.000  -0.000  -0.000
  0.000  -0.000   0.000  -0.263   0.041  -0.000  -0.000  -0.000  -0.090   0.218  -0.000   0.000   0.028  -0.000   0.000  -0.002
 -0.000   0.000  -0.011   0.000   0.000   0.000   0.000   0.055  -0.000  -0.000   1.075  -0.189   0.000  -0.000   0.000   0.000
 -0.000  -0.000  -0.018   0.000   0.000  -0.000  -0.000  -0.010  -0.000   0.000  -0.189   0.078  -0.000   0.000   0.000   0.000
 -0.000  -0.000  -0.000  -0.002   0.007  -0.000  -0.000  -0.000   0.005   0.028   0.000   0.000   0.237   0.000  -0.000  -0.004
  0.000   0.000   0.000   0.000  -0.000   0.000  -0.000   0.000   0.000  -0.000  -0.000   0.000   0.000   0.256   0.000  -0.000
  0.007   0.002   0.000  -0.000   0.000   0.028  -0.005   0.000  -0.000   0.000   0.000   0.000  -0.000   0.000   0.237   0.000
  0.000   0.000   0.000  -0.000  -0.001   0.000   0.000   0.000  -0.000  -0.002   0.000   0.000  -0.004  -0.000   0.000   0.000
 -0.000   0.000  -0.000   0.000   0.000  -0.000  -0.000  -0.000   0.000   0.000   0.000  -0.000  -0.000  -0.005  -0.000   0.000
 -0.001   0.000  -0.000   0.000  -0.000  -0.002   0.000  -0.000   0.000  -0.000   0.000   0.000  -0.000  -0.000  -0.004  -0.000
 total augmentation occupancy for first ion, spin component:           2
  0.691  -0.318   0.000   0.000  -0.000  -0.186   0.081  -0.000  -0.000  -0.000  -0.000  -0.000   0.000  -0.000  -0.005   0.000
 -0.318   0.400  -0.000  -0.000   0.000   0.077  -0.102   0.000  -0.000  -0.000   0.000   0.000  -0.000  -0.000   0.006  -0.000
  0.000  -0.000   0.896  -0.000  -0.000  -0.000   0.000  -0.281   0.000   0.000  -0.030  -0.008   0.000  -0.000  -0.000  -0.000
  0.000  -0.000  -0.000   0.400   0.318  -0.000   0.000   0.000  -0.102  -0.077   0.000   0.000  -0.006   0.000  -0.000   0.000
 -0.000   0.000  -0.000   0.318   0.691   0.000  -0.000   0.000  -0.081  -0.186   0.000   0.000  -0.005   0.000  -0.000   0.001
 -0.186   0.077  -0.000  -0.000   0.000   0.015  -0.066   0.000   0.000  -0.000   0.000   0.000  -0.000   0.000  -0.001  -0.000
  0.081  -0.102   0.000   0.000  -0.000  -0.066  -0.045  -0.000   0.000   0.000  -0.000  -0.000   0.000   0.000  -0.001  -0.000
 -0.000   0.000  -0.281   0.000   0.000   0.000  -0.000   0.085  -0.000  -0.000   0.016   0.006   0.000   0.000  -0.000  -0.000
 -0.000  -0.000   0.000  -0.102  -0.081   0.000   0.000  -0.000  -0.045   0.066  -0.000  -0.000   0.001   0.000   0.000  -0.000
 -0.000  -0.000   0.000  -0.077  -0.186  -0.000   0.000  -0.000   0.066   0.015  -0.000  -0.000  -0.001  -0.000   0.000   0.000
 -0.000   0.000  -0.030   0.000   0.000   0.000   0.000   0.016  -0.000  -0.000   0.150   0.066   0.000  -0.000   0.000   0.000
 -0.000   0.000  -0.008   0.000   0.000   0.000  -0.000   0.006  -0.000  -0.000   0.066  -0.022   0.000  -0.000   0.000   0.000
  0.000  -0.000   0.000  -0.006  -0.005  -0.000   0.000   0.000   0.001  -0.001   0.000   0.000   0.025   0.000  -0.000   0.003
 -0.000   0.000  -0.000  -0.000   0.000   0.000  -0.000   0.000   0.000  -0.000  -0.000  -0.000   0.000   0.021   0.000   0.000
 -0.005   0.006  -0.000  -0.000  -0.000  -0.001  -0.001  -0.000   0.000   0.000  -0.000   0.000  -0.000   0.000   0.025  -0.000
  0.000  -0.000  -0.000   0.000   0.001  -0.000  -0.000  -0.000  -0.000   0.000   0.000   0.000   0.003   0.000  -0.000  -0.000
 -0.000   0.000  -0.000  -0.000   0.000   0.000   0.000   0.000   0.000  -0.000  -0.000   0.000   0.000   0.003   0.000  -0.000
  0.001  -0.000   0.000  -0.000  -0.000   0.000   0.000   0.000  -0.000   0.000  -0.000   0.000   0.000   0.000   0.003   0.000


------------------------ aborting loop because EDIFF is reached ----------------------------------------





 total charge     

# of ion       s       p       d       tot
------------------------------------------
    1        0.353   0.496   4.220   5.068
    2        0.353   0.496   4.220   5.068
    3        1.129   1.184   0.133   2.445
    4        1.129   1.184   0.133   2.445
    5        1.364   2.340   0.000   3.704
    6        1.360   2.347   0.000   3.707
    7        1.363   2.340   0.000   3.703
    8        1.364   2.340   0.000   3.704
    9        1.360   2.347   0.000   3.707
   10        1.363   2.340   0.000   3.703
--------------------------------------------------
tot         11.138  17.412   8.704  37.254



 magnetization (x)

# of ion       s       p       d       tot
------------------------------------------
    1        0.033   0.040   2.878   2.952
    2        0.033   0.040   2.878   2.952
    3        0.003   0.052  -0.001   0.053
    4        0.003   0.052  -0.001   0.053
    5       -0.000  -0.061   0.000  -0.061
    6       -0.002  -0.051   0.000  -0.053
    7       -0.001  -0.057   0.000  -0.058
    8       -0.000  -0.061   0.000  -0.061
    9       -0.002  -0.051   0.000  -0.053
   10       -0.001  -0.057   0.000  -0.058
--------------------------------------------------
tot          0.066  -0.154   5.754   5.667

    CHARGE:  cpu time    1.7480: real time    1.7524
    FORLOC:  cpu time    0.0600: real time    0.0599
    FORNL :  cpu time    5.1280: real time    5.1423
    STRESS:  cpu time   15.4560: real time   15.4933
    FORCOR:  cpu time   69.1040: real time   69.2000
    FORHAR:  cpu time    0.3440: real time    0.3420
    MIXING:  cpu time    0.0440: real time    0.0427
    OFIELD:  cpu time    0.0000: real time    0.0000

  FORCE on cell =-STRESS in cart. coord.  units (eV):
  Direction    XX          YY          ZZ          XY          YZ          ZX
  --------------------------------------------------------------------------------------
  Alpha Z    29.92427    29.92427    29.92427
  Ewald    9794.07754  9794.07528-11429.21169    -0.00123    -0.00041    -0.00074
  Hartree 10136.56924 10136.56958 -9946.29543    -0.00009     0.00003     0.00005
  E(xc)    -211.87382  -211.87382  -211.36155     0.00001     0.00000     0.00001
  Local  -20796.40337-20796.40275 20475.28632     0.00092     0.00021     0.00038
  n-local   458.16935   460.03311   462.12646     0.89340     0.55751     0.52642
  augment   -41.53291   -41.53287   -44.84879     0.00001     0.00002     0.00002
  Kinetic   632.38750   627.63896   664.51560    -3.36347     1.17666     1.13760
  Fock        0.00000     0.00000     0.00000     0.00000     0.00000     0.00000
  -------------------------------------------------------------------------------------
  Total      -0.12522    -0.12522     0.13519     0.00000    -0.00000     0.00000
  in kB      -0.27903    -0.27903     0.30124     0.00000    -0.00000     0.00000
  external pressure =       -0.09 kB  Pullay stress =        0.00 kB


 VOLUME and BASIS-vectors are now :
 -----------------------------------------------------------------------------
  energy-cutoff  :      520.00
  volume of cell :      719.01
      direct lattice vectors                 reciprocal lattice vectors
     6.062662190 -0.000000008  0.000000000     0.164944041 -0.095230481 -0.000000000
     3.031330785  5.250419235  0.000000000     0.000000000  0.190460981 -0.000000000
     0.000000000  0.000000000 22.588010072    -0.000000000 -0.000000000  0.044271275

  length of vectors
     6.062662190  6.062661831 22.588010072     0.190460970  0.190460981  0.044271275


 FORCES acting on ions
    electron-ion (+dipol)            ewald-force                    non-local-force                 convergence-correction
 -----------------------------------------------------------------------------------------------
   -.104E-03 -.573E-04 0.469E+00   0.390E-03 0.231E-03 -.471E+00   -.693E-17 0.139E-16 0.117E-01   -.225E-07 0.994E-09 0.530E-04
   0.104E-03 0.573E-04 -.469E+00   -.390E-03 -.231E-03 0.471E+00   -.930E-20 -.104E-16 -.117E-01   0.225E-07 -.994E-09 -.530E-04
   -.299E-04 -.243E-04 0.221E+03   -.197E-03 -.110E-03 -.217E+03   0.684E-19 -.178E-16 -.429E+01   -.143E-06 -.856E-07 -.113E-01
   0.299E-04 0.243E-04 -.221E+03   0.197E-03 0.110E-03 0.217E+03   0.687E-17 0.143E-16 0.429E+01   0.143E-06 0.856E-07 0.113E-01
   -.787E+01 -.346E-01 -.449E+03   0.371E+01 0.408E-01 0.452E+03   0.414E+01 -.731E-02 -.358E+01   0.759E-02 0.129E-03 0.272E-01
   0.390E+01 0.683E+01 -.449E+03   -.182E+01 -.323E+01 0.452E+03   -.208E+01 -.358E+01 -.358E+01   -.368E-02 -.664E-02 0.272E-01
   0.396E+01 -.680E+01 -.449E+03   -.189E+01 0.319E+01 0.452E+03   -.207E+01 0.359E+01 -.358E+01   -.391E-02 0.651E-02 0.272E-01
   0.787E+01 0.346E-01 0.449E+03   -.371E+01 -.408E-01 -.452E+03   -.414E+01 0.731E-02 0.358E+01   -.759E-02 -.129E-03 -.272E-01
   -.390E+01 -.683E+01 0.449E+03   0.182E+01 0.323E+01 -.452E+03   0.208E+01 0.358E+01 0.358E+01   0.368E-02 0.664E-02 -.272E-01
   -.396E+01 0.680E+01 0.449E+03   0.189E+01 -.319E+01 -.452E+03   0.207E+01 -.359E+01 0.358E+01   0.391E-02 -.651E-02 -.272E-01
 -----------------------------------------------------------------------------------------------
   -.393E-10 -.636E-10 0.119E-09   0.111E-13 -.266E-14 -.171E-12   0.133E-14 0.444E-15 0.000E+00   0.206E-13 -.457E-13 0.741E-11


 POSITION                                       TOTAL-FORCE (eV/Angst)
 -----------------------------------------------------------------------------------
      3.03133      1.75014     11.29231        -0.000000      0.000000      0.009438
      6.06267      3.50028     11.29570        -0.000000     -0.000000     -0.009438
      0.00000      0.00000     10.12431        -0.000000     -0.000000     -0.072534
      0.00000      0.00000     12.46370        -0.000000      0.000000      0.072534
      3.80928      0.00069     12.82895        -0.010281     -0.000086     -0.023306
      1.12729      1.95115     12.82895         0.005066      0.008947     -0.023306
      4.15743      3.29859     12.82895         0.005215     -0.008860     -0.023306
      2.25338     -0.00069      9.75906         0.010281      0.000086      0.023306
      1.90404      3.29927      9.75906        -0.005066     -0.008947      0.023306
      4.93656      1.95183      9.75906        -0.005215      0.008860      0.023306
 -----------------------------------------------------------------------------------
    total drift:                               -0.000000     -0.000000      0.000000


--------------------------------------------------------------------------------------------------------



  FREE ENERGIE OF THE ION-ELECTRON SYSTEM (eV)
  ---------------------------------------------------
  free  energy   TOTEN  =       -53.17205363 eV

  energy  without entropy=      -53.17205363  energy(sigma->0) =      -53.17205363

 d Force = 0.3370825E-03[ 0.927E-04, 0.581E-03]  d Energy =-0.1902556E-03 0.527E-03
 d Force =-0.5753826E+01[-0.575E+01,-0.576E+01]  d Ewald  = 0.7885057E+01-0.136E+02


--------------------------------------------------------------------------------------------------------


    POTLOK:  cpu time   69.4480: real time   69.5094


--------------------------------------------------------------------------------------------------------




--------------------------------------------------------------------------------------------------------


  
 reached required accuracy - stopping structural energy minimisation
     LOOP+:  cpu time  608.9800: real time  609.7358
    4ORBIT:  cpu time    0.0000: real time    0.0000



 total charge     

# of ion       s       p       d       tot
------------------------------------------
    1        0.353   0.496   4.220   5.068
    2        0.353   0.496   4.220   5.068
    3        1.129   1.184   0.133   2.445
    4        1.129   1.184   0.133   2.445
    5        1.364   2.340   0.000   3.704
    6        1.360   2.347   0.000   3.707
    7        1.363   2.340   0.000   3.703
    8        1.364   2.340   0.000   3.704
    9        1.360   2.347   0.000   3.707
   10        1.363   2.340   0.000   3.703
--------------------------------------------------
tot         11.138  17.412   8.704  37.254



 magnetization (x)

# of ion       s       p       d       tot
------------------------------------------
    1        0.033   0.040   2.878   2.952
    2        0.033   0.040   2.878   2.952
    3        0.003   0.052  -0.001   0.053
    4        0.003   0.052  -0.001   0.053
    5       -0.000  -0.061   0.000  -0.061
    6       -0.002  -0.051   0.000  -0.053
    7       -0.001  -0.057   0.000  -0.058
    8       -0.000  -0.061   0.000  -0.061
    9       -0.002  -0.051   0.000  -0.053
   10       -0.001  -0.057   0.000  -0.058
--------------------------------------------------
tot          0.066  -0.154   5.754   5.667

 BZINTS: Fermi energy: -3.277176; 56.000000 electrons
         Band energy:-462.616946;  BLOECHL correction:  0.000000

 total amount of memory used by VASP MPI-rank0   170753. kBytes
=======================================================================

   base      :      30000. kBytes
   nonlr-proj:       8972. kBytes
   fftplans  :      20284. kBytes
   grid      :      90201. kBytes
   one-center:        311. kBytes
   wavefun   :      20985. kBytes

  
  
 General timing and accounting informations for this job:
 ========================================================
  
                  Total CPU time used (sec):    17189.225
                            User time (sec):    17120.408
                          System time (sec):       68.816
                         Elapsed time (sec):    17294.852
  
                   Maximum memory used (kb):      590488.
                   Average memory used (kb):           0.
  
                          Minor page faults:     17918934
                          Major page faults:            7
                 Voluntary context switches:          836
