 vasp.5.4.4.18Apr17-6-g9f103f2a35 (build May  1 2020 15:48:39) complex           
 executed on             LinuxGNU date 2020.07.01  19:54:47
 running on    8 total cores
 distrk:  each k-point on    8 cores,    1 groups
 distr:  one band on NCORES_PER_BAND=   1 cores,    8 groups


--------------------------------------------------------------------------------------------------------


 INCAR:
 POTCAR:   PAW_PBE Cr 06Sep2000                   
 POTCAR:   PAW_PBE Si 05Jan2001                   
 POTCAR:    PAW_PBE P 17Jan2003                   
 POTCAR:   PAW_PBE Se 06Sep2000                   

 ----------------------------------------------------------------------------- 
|                                                                             |
|           W    W    AA    RRRRR   N    N  II  N    N   GGGG   !!!           |
|           W    W   A  A   R    R  NN   N  II  NN   N  G    G  !!!           |
|           W    W  A    A  R    R  N N  N  II  N N  N  G       !!!           |
|           W WW W  AAAAAA  RRRRR   N  N N  II  N  N N  G  GGG   !            |
|           WW  WW  A    A  R   R   N   NN  II  N   NN  G    G                |
|           W    W  A    A  R    R  N    N  II  N    N   GGGG   !!!           |
|                                                                             |
|      For optimal performance we recommend to set                            |
|        NCORE= 4 - approx SQRT( number of cores)                             |
|      NCORE specifies how many cores store one orbital (NPAR=cpu/NCORE).     |
|      This setting can  greatly improve the performance of VASP for DFT.     |
|      The default,   NCORE=1            might be grossly inefficient         |
|      on modern multi-core architectures or massively parallel machines.     |
|      Do your own testing !!!!                                               |
|      Unfortunately you need to use the default for GW and RPA calculations. |
|      (for HF NCORE is supported but not extensively tested yet)             |
|                                                                             |
 ----------------------------------------------------------------------------- 


 ----------------------------------------------------------------------------- 
|                                                                             |
|  ADVICE TO THIS USER RUNNING 'VASP/VAMP'   (HEAR YOUR MASTER'S VOICE ...):  |
|                                                                             |
|      You have switched on vdW-DFT.                                          |
|      This routine was written and supplied by Jiri Klimes.                  |
|      We recommed that you carefully read and cite the following             |
|      publication                                                            |
|      J. Klimes, D.R. Bowler, A. Michelides                                  |
|        J. Phys.: Cond Matt. 22 022201 (2010)                                |
|      J. Klimes, D.R. Bowler, A. Michelides                                  |
|        Phys. Rev. B. 83, 195131 (2011)                                      |
|      and references therein.                                                |
|                                                                             |
 ----------------------------------------------------------------------------- 

 POTCAR:   PAW_PBE Cr 06Sep2000                   
   VRHFIN =Cr : d5 s1                                                           
   LEXCH  = PE                                                                  
   EATOM  =   276.9744 eV,   20.3570 Ry                                         
                                                                                
   TITEL  = PAW_PBE Cr 06Sep2000                                                
   LULTRA =        F    use ultrasoft PP ?                                      
   IUNSCR =        1    unscreen: 0-lin 1-nonlin 2-no                           
   RPACOR =    2.080    partial core radius                                     
   POMASS =   51.996; ZVAL   =    6.000    mass and valenz                      
   RCORE  =    2.500    outmost cutoff radius                                   
   RWIGS  =    2.500; RWIGS  =    1.323    wigner-seitz radius (au A)           
   ENMAX  =  227.082; ENMIN  =  170.311 eV                                      
   RCLOC  =    1.721    cutoff for local pot                                    
   LCOR   =        T    correct aug charges                                     
   LPAW   =        T    paw PP                                                  
   EAUG   =  402.108                                                            
   DEXC   =    -.035                                                            
   RMAX   =    3.060    core radius for proj-oper                               
   RAUG   =    1.300    factor for augmentation sphere                          
   RDEP   =    2.609    radius for radial grids                                 
   QCUT   =   -4.085; QGAM   =    8.171    optimization parameters              
                                                                                
   Description                                                                  
     l     E      TYP  RCUT    TYP  RCUT                                        
     2   .000     23  2.500                                                     
     2   .000     23  2.500                                                     
     0   .000     23  2.500                                                     
     0   .000     23  2.500                                                     
     1  -.400     23  2.500                                                     
     1  2.000     23  2.500                                                     
     3   .000      7   .000                                                     
  local pseudopotential read in
  partial core-charges read in
  atomic valenz-charges read in
  non local Contribution for L=           2  read in
    real space projection operators read in
  non local Contribution for L=           2  read in
    real space projection operators read in
  non local Contribution for L=           0  read in
    real space projection operators read in
  non local Contribution for L=           0  read in
    real space projection operators read in
  non local Contribution for L=           1  read in
    real space projection operators read in
  non local Contribution for L=           1  read in
    real space projection operators read in
    PAW grid and wavefunctions read in

   number of l-projection  operators is LMAX  =           6
   number of lm-projection operators is LMMAX =          18

 POTCAR:   PAW_PBE Si 05Jan2001                   
   VRHFIN =Si: s2p2                                                             
   LEXCH  = PE                                                                  
   EATOM  =   103.0669 eV,    7.5752 Ry                                         
                                                                                
   TITEL  = PAW_PBE Si 05Jan2001                                                
   LULTRA =        F    use ultrasoft PP ?                                      
   IUNSCR =        1    unscreen: 0-lin 1-nonlin 2-no                           
   RPACOR =    1.500    partial core radius                                     
   POMASS =   28.085; ZVAL   =    4.000    mass and valenz                      
   RCORE  =    1.900    outmost cutoff radius                                   
   RWIGS  =    2.480; RWIGS  =    1.312    wigner-seitz radius (au A)           
   ENMAX  =  245.345; ENMIN  =  184.009 eV                                      
   ICORE  =        2    local potential                                         
   LCOR   =        T    correct aug charges                                     
   LPAW   =        T    paw PP                                                  
   EAUG   =  322.069                                                            
   DEXC   =    -.007                                                            
   RMAX   =    2.944    core radius for proj-oper                               
   RAUG   =    1.300    factor for augmentation sphere                          
   RDEP   =    1.993    radius for radial grids                                 
   QCUT   =   -4.246; QGAM   =    8.493    optimization parameters              
                                                                                
   Description                                                                  
     l     E      TYP  RCUT    TYP  RCUT                                        
     0   .000     23  1.900                                                     
     0   .000     23  1.900                                                     
     1   .000     23  1.900                                                     
     1   .000     23  1.900                                                     
     2   .000      7  1.900                                                     
  local pseudopotential read in
  partial core-charges read in
  atomic valenz-charges read in
  non local Contribution for L=           0  read in
    real space projection operators read in
  non local Contribution for L=           0  read in
    real space projection operators read in
  non local Contribution for L=           1  read in
    real space projection operators read in
  non local Contribution for L=           1  read in
    real space projection operators read in
    PAW grid and wavefunctions read in

   number of l-projection  operators is LMAX  =           4
   number of lm-projection operators is LMMAX =           8

 POTCAR:    PAW_PBE P 17Jan2003                   
   VRHFIN =P : s2p3                                                             
   LEXCH  = PE                                                                  
   EATOM  =   176.0430 eV,   12.9388 Ry                                         
                                                                                
   TITEL  = PAW_PBE P 17Jan2003                                                 
   LULTRA =        F    use ultrasoft PP ?                                      
   IUNSCR =        1    unscreen: 0-lin 1-nonlin 2-no                           
   RPACOR =    1.500    partial core radius                                     
   POMASS =   30.974; ZVAL   =    5.000    mass and valenz                      
   RCORE  =    1.900    outmost cutoff radius                                   
   RWIGS  =    2.330; RWIGS  =    1.233    wigner-seitz radius (au A)           
   ENMAX  =  270.000; ENMIN  =  191.280 eV                                      
   ICORE  =        2    local potential                                         
   LCOR   =        T    correct aug charges                                     
   LPAW   =        T    paw PP                                                  
   EAUG   =  342.924                                                            
   DEXC   =    -.002                                                            
   RMAX   =    2.887    core radius for proj-oper                               
   RAUG   =    1.300    factor for augmentation sphere                          
   RDEP   =    1.931    radius for radial grids                                 
   QCUT   =   -4.330; QGAM   =    8.659    optimization parameters              
                                                                                
   Description                                                                  
     l     E      TYP  RCUT    TYP  RCUT                                        
     0   .000     23  1.900                                                     
     0   .000     23  1.900                                                     
     1   .000     23  1.900                                                     
     1   .000     23  1.900                                                     
     2   .000     23  1.900                                                     
  local pseudopotential read in
  partial core-charges read in
  atomic valenz-charges read in
  non local Contribution for L=           0  read in
    real space projection operators read in
  non local Contribution for L=           0  read in
    real space projection operators read in
  non local Contribution for L=           1  read in
    real space projection operators read in
  non local Contribution for L=           1  read in
    real space projection operators read in
    PAW grid and wavefunctions read in

   number of l-projection  operators is LMAX  =           4
   number of lm-projection operators is LMMAX =           8

 POTCAR:   PAW_PBE Se 06Sep2000                   
   VRHFIN =Se: s2p4                                                             
   LEXCH  = PE                                                                  
   EATOM  =   256.9644 eV,   18.8864 Ry                                         
                                                                                
   TITEL  = PAW_PBE Se 06Sep2000                                                
   LULTRA =        F    use ultrasoft PP ?                                      
   IUNSCR =        1    unscreen: 0-lin 1-nonlin 2-no                           
   RPACOR =    1.900    partial core radius                                     
   POMASS =   78.960; ZVAL   =    6.000    mass and valenz                      
   RCORE  =    2.100    outmost cutoff radius                                   
   RWIGS  =    2.200; RWIGS  =    1.164    wigner-seitz radius (au A)           
   ENMAX  =  211.534; ENMIN  =  158.651 eV                                      
   ICORE  =        3    local potential                                         
   LCOR   =        T    correct aug charges                                     
   LPAW   =        T    paw PP                                                  
   EAUG   =  446.842                                                            
   DEXC   =    -.031                                                            
   RMAX   =    3.170    core radius for proj-oper                               
   RAUG   =    1.300    factor for augmentation sphere                          
   RDEP   =    2.177    radius for radial grids                                 
   QCUT   =   -3.943; QGAM   =    7.886    optimization parameters              
                                                                                
   Description                                                                  
     l     E      TYP  RCUT    TYP  RCUT                                        
     0   .000     23  2.100                                                     
     0   .000     23  2.100                                                     
     1   .000     23  2.100                                                     
     1   .000     23  2.100                                                     
     2   .000     23  2.100                                                     
     3  -.100      7  2.100                                                     
  local pseudopotential read in
  partial core-charges read in
  atomic valenz-charges read in
  non local Contribution for L=           0  read in
    real space projection operators read in
  non local Contribution for L=           0  read in
    real space projection operators read in
  non local Contribution for L=           1  read in
    real space projection operators read in
  non local Contribution for L=           1  read in
    real space projection operators read in
  non local Contribution for L=           2  read in
    real space projection operators read in
    PAW grid and wavefunctions read in

   number of l-projection  operators is LMAX  =           5
   number of lm-projection operators is LMMAX =          13

 Optimization of the real space projectors (new method)

 maximal supplied QI-value         = 15.12
 optimisation between [QCUT,QGAM] = [ 11.64, 23.28] = [ 37.95,151.78] Ry 
 Optimized for a Real-space Cutoff    1.49 Angstroem

   l    n(q)    QCUT    max X(q) W(low)/X(q) W(high)/X(q)  e(spline) 
   2      9    11.641     4.777    0.25E-04    0.21E-05    0.63E-07
   2      9    11.641    31.132    0.13E-03    0.22E-03    0.64E-06
   0     10    11.641    20.416    0.11E-04    0.74E-05    0.19E-07
   0     10    11.641    45.408    0.10E-03    0.85E-04    0.30E-06
   1     10    11.641     7.848    0.22E-04    0.23E-04    0.56E-07
   1     10    11.641     9.895    0.85E-04    0.54E-04    0.16E-06
 Optimization of the real space projectors (new method)

 maximal supplied QI-value         = 19.84
 optimisation between [QCUT,QGAM] = [ 11.51, 23.22] = [ 37.09,150.92] Ry 
 Optimized for a Real-space Cutoff    1.21 Angstroem

   l    n(q)    QCUT    max X(q) W(low)/X(q) W(high)/X(q)  e(spline) 
   0      8    11.508     8.708    0.18E-04    0.44E-05    0.47E-08
   0      8    11.508   106.241    0.70E-04    0.15E-03    0.51E-07
   1      8    11.508     5.901    0.63E-05    0.23E-04    0.21E-07
   1      8    11.508    73.241    0.15E-03    0.36E-04    0.79E-07
 Optimization of the real space projectors (new method)

 maximal supplied QI-value         = 19.84
 optimisation between [QCUT,QGAM] = [ 11.51, 23.22] = [ 37.09,150.92] Ry 
 Optimized for a Real-space Cutoff    1.21 Angstroem

   l    n(q)    QCUT    max X(q) W(low)/X(q) W(high)/X(q)  e(spline) 
   0      8    11.508     6.651    0.19E-04    0.31E-05    0.49E-08
   0      8    11.508    90.285    0.95E-04    0.17E-03    0.51E-07
   1      8    11.508     4.328    0.14E-04    0.32E-04    0.22E-07
   1      8    11.508    54.583    0.16E-03    0.71E-04    0.89E-07
 Optimization of the real space projectors (new method)

 maximal supplied QI-value         = 17.95
 optimisation between [QCUT,QGAM] = [ 11.67, 23.34] = [ 38.13,152.52] Ry 
 Optimized for a Real-space Cutoff    1.25 Angstroem

   l    n(q)    QCUT    max X(q) W(low)/X(q) W(high)/X(q)  e(spline) 
   0      9    11.669     6.499    0.13E-04    0.81E-05    0.11E-07
   0      9    11.669    52.623    0.18E-03    0.46E-04    0.72E-07
   1      8    11.669     4.229    0.40E-04    0.45E-04    0.31E-07
   1      8    11.669    29.991    0.22E-03    0.36E-03    0.10E-06
   2      8    11.669     3.719    0.19E-03    0.46E-04    0.50E-07

 ----------------------------------------------------------------------------- 
|                                                                             |
|  ADVICE TO THIS USER RUNNING 'VASP/VAMP'   (HEAR YOUR MASTER'S VOICE ...):  |
|                                                                             |
|      You enforced a specific xc-type in the INCAR file,                     |
|      a different type was found on the POTCAR file                          |
|          I HOPE YOU KNOW, WHAT YOU ARE  DOING                               |
|                                                                             |
 ----------------------------------------------------------------------------- 

 PAW_PBE Cr 06Sep2000                   :
 energy of atom  1       EATOM= -276.9744
 kinetic energy error for atom=    0.0010 (will be added to EATOM!!)
 PAW_PBE Si 05Jan2001                   :
 energy of atom  2       EATOM= -103.0669
 kinetic energy error for atom=    0.0005 (will be added to EATOM!!)
  PAW_PBE P 17Jan2003                   :
 energy of atom  3       EATOM= -176.0430
 kinetic energy error for atom=    0.0011 (will be added to EATOM!!)
 PAW_PBE Se 06Sep2000                   :
 energy of atom  4       EATOM= -256.9644
 kinetic energy error for atom=    0.0007 (will be added to EATOM!!)


 POSCAR: Cr2 Si P Se6                            
  positions in direct lattice
  velocities in cartesian coordinates
  No initial velocities read in
 exchange correlation table for  LEXCH =       42
   RHO(1)=    0.500       N(1)  =     2000
   RHO(2)=  100.500       N(2)  =     4000



--------------------------------------------------------------------------------------------------------


 ion  position               nearest neighbor table
   1  0.333  0.333  0.500-   6 2.78   5 2.78   7 2.78   8 2.78  10 2.78   9 2.78
   2  0.667  0.667  0.500-   9 2.78   8 2.78  10 2.78   5 2.78   7 2.78   6 2.78
   3  0.000  0.000  0.448-   4 2.43   8 2.63  10 2.63   9 2.63
   4  0.000  0.000  0.552-   3 2.43   5 2.63   7 2.63   6 2.63
   5  0.626  0.000  0.574-   4 2.63   1 2.78   2 2.78
   6  0.000  0.373  0.574-   4 2.63   1 2.78   2 2.78
   7  0.373  0.626  0.574-   4 2.63   1 2.78   2 2.78
   8  0.374  1.000  0.426-   3 2.63   2 2.78   1 2.78
   9  1.000  0.627  0.426-   3 2.63   2 2.78   1 2.78
  10  0.627  0.374  0.426-   3 2.63   2 2.78   1 2.78

  LATTYP: Found a hexagonal cell.
 ALAT       =     6.9077769333
 C/A-ratio  =     3.3939410937
  
  Lattice vectors:
  
 A1 = (   3.4538890000,  -5.9823100000,   0.0000000000)
 A2 = (  -6.9077770000,   0.0000000000,   0.0000000000)
 A3 = (   0.0000000000,   0.0000000000, -23.4445880000)


Analysis of symmetry for initial positions (statically):
=====================================================================
 Subroutine PRICEL returns:
 Original cell was already a primitive cell.
 

 Routine SETGRP: Setting up the symmetry group for a 
 hexagonal supercell.


 Subroutine GETGRP returns: Found  3 space group operations
 (whereof  3 operations were pure point group operations)
 out of a pool of 24 trial point group operations.


The static configuration has the point symmetry C_3 .


Analysis of symmetry for dynamics (positions and initial velocities):
=====================================================================
 Subroutine PRICEL returns:
 Original cell was already a primitive cell.
 

 Routine SETGRP: Setting up the symmetry group for a 
 hexagonal supercell.


 Subroutine GETGRP returns: Found  3 space group operations
 (whereof  3 operations were pure point group operations)
 out of a pool of 24 trial point group operations.


The dynamic configuration has the point symmetry C_3 .


Analysis of constrained symmetry for selective dynamics:
=====================================================================
 Subroutine PRICEL returns:
 Original cell was already a primitive cell.
 

 Routine SETGRP: Setting up the symmetry group for a 
 hexagonal supercell.


 Subroutine GETGRP returns: Found  3 space group operations
 (whereof  3 operations were pure point group operations)
 out of a pool of 24 trial point group operations.


The constrained configuration has the point symmetry C_3 .


Analysis of structural, dynamic, and magnetic symmetry:
=====================================================================
 Subroutine PRICEL returns:
 Original cell was already a primitive cell.
 

 Routine SETGRP: Setting up the symmetry group for a 
 hexagonal supercell.


 Subroutine GETGRP returns: Found  3 space group operations
 (whereof  3 operations were pure point group operations)
 out of a pool of 24 trial point group operations.


The magnetic configuration has the point symmetry C_3 .


 Subroutine INISYM returns: Found  3 space group operations
 (whereof  3 operations are pure point group operations),
 and found     1 'primitive' translations



 KPOINTS: Kpoints from vasprun.xml                

Automatic generation of k-mesh.
Space group operators:
 irot       det(A)        alpha          n_x          n_y          n_z        tau_x        tau_y        tau_z
    1     1.000000     0.000000     1.000000     0.000000     0.000000     0.000000     0.000000     0.000000
    2     1.000000   120.000000     0.000000     0.000000     1.000000     0.000000     0.000000     0.000000
    3     1.000000   120.000000     0.000000     0.000000    -1.000000     0.000000     0.000000     0.000000
 
 Subroutine IBZKPT returns following result:
 ===========================================
 
 Found      5 irreducible k-points:
 
 Following reciprocal coordinates:
            Coordinates               Weight
  0.000000  0.000000  0.000000      1.000000
  0.200000  0.000000  0.000000      6.000000
  0.400000  0.000000  0.000000      6.000000
  0.400000  0.200000  0.000000      6.000000
 -0.400000  0.200000  0.000000      6.000000
 
 Following cartesian coordinates:
            Coordinates               Weight
  0.000000  0.000000  0.000000      1.000000
  0.028953 -0.016716  0.000000      6.000000
  0.057906 -0.033432  0.000000      6.000000
  0.057906  0.000000  0.000000      6.000000
 -0.057906  0.066864  0.000000      6.000000
 
 TETIRR: Found     15 inequivalent tetrahedra from      150


--------------------------------------------------------------------------------------------------------




 Dimension of arrays:
   k-points           NKPTS =      5   k-points in BZ     NKDIM =      5   number of bands    NBANDS=     40
   number of dos      NEDOS =    301   number of ions     NIONS =     10
   non local maximal  LDIM  =      6   non local SUM 2l+1 LMDIM =     18
   total plane-waves  NPLWV = 524880
   max r-space proj   IRMAX =   7543   max aug-charges    IRDMAX=  27873
   dimension x,y,z NGX =    54 NGY =   54 NGZ =  180
   dimension x,y,z NGXF=   108 NGYF=  108 NGZF=  360
   support grid    NGXF=   108 NGYF=  108 NGZF=  360
   ions per type =               2   1   1   6
   NGX,Y,Z   is equivalent  to a cutoff of  13.00, 13.00, 12.76 a.u.
   NGXF,Y,Z  is equivalent  to a cutoff of  25.99, 25.99, 25.53 a.u.

 SYSTEM =  unknown system                          
 POSCAR =  Cr2 Si P Se6                            

 Startparameter for this run:
   NWRITE =      2    write-flag & timer
   PREC   = accura    normal or accurate (medium, high low for compatibility)
   ISTART =      0    job   : 0-new  1-cont  2-samecut
   ICHARG =      2    charge: 1-file 2-atom 10-const
   ISPIN  =      2    spin polarized calculation?
   LNONCOLLINEAR =      F non collinear calculations
   LSORBIT =      F    spin-orbit coupling
   INIWAV =      1    electr: 0-lowe 1-rand  2-diag
   LASPH  =      F    aspherical Exc in radial PAW
   METAGGA=      F    non-selfconsistent MetaGGA calc.

 Electronic Relaxation 1
   ENCUT  =  520.0 eV  38.22 Ry    6.18 a.u.  12.84 12.84 43.59*2*pi/ulx,y,z
   ENINI  =  520.0     initial cutoff
   ENAUG  =  446.8 eV  augmentation charge cutoff
   NELM   =    400;   NELMIN=  2; NELMDL=  0     # of ELM steps 
   EDIFF  = 0.1E-03   stopping-criterion for ELM
   LREAL  =      T    real-space projection
   NLSPLINE    = F    spline interpolate recip. space projectors
   LCOMPAT=      F    compatible to vasp.4.4
   GGA_COMPAT  = T    GGA compatible to vasp.4.4-vasp.4.6
   LMAXPAW     = -100 max onsite density
   LMAXMIX     =    2 max onsite mixed and CHGCAR
   VOSKOWN=      0    Vosko Wilk Nusair interpolation
   ROPT   =   -0.00025  -0.00025  -0.00025  -0.00025
 Ionic relaxation
   EDIFFG = 0.1E-02   stopping-criterion for IOM
   NSW    =     99    number of steps for IOM
   NBLOCK =      1;   KBLOCK =     99    inner block; outer block 
   IBRION =      2    ionic relax: 0-MD 1-quasi-New 2-CG
   NFREE  =      1    steps in history (QN), initial steepest desc. (CG)
   ISIF   =      3    stress and relaxation
   IWAVPR =     11    prediction:  0-non 1-charg 2-wave 3-comb
   ISYM   =      2    0-nonsym 1-usesym 2-fastsym
   LCORR  =      T    Harris-Foulkes like correction to forces

   POTIM  = 0.5000    time-step for ionic-motion
   TEIN   =    0.0    initial temperature
   TEBEG  =    0.0;   TEEND  =   0.0 temperature during run
   SMASS  =  -3.00    Nose mass-parameter (am)
   estimated Nose-frequenzy (Omega)   =  0.10E-29 period in steps =****** mass=  -0.109E-26a.u.
   SCALEE = 1.0000    scale energy and forces
   NPACO  =    256;   APACO  = 16.0  distance and # of slots for P.C.
   PSTRESS=    0.0 pullay stress

  Mass of Ions in am
   POMASS =  52.00 28.09 30.97 78.96
  Ionic Valenz
   ZVAL   =   6.00  4.00  5.00  6.00
  Atomic Wigner-Seitz radii
   RWIGS  =  -1.00 -1.00 -1.00 -1.00
  virtual crystal weights 
   VCA    =   1.00  1.00  1.00  1.00
   NELECT =      57.0000    total number of electrons
   NUPDOWN=      -1.0000    fix difference up-down

 DOS related values:
   EMIN   =  10.00;   EMAX   =-10.00  energy-range for DOS
   EFERMI =   0.00
   ISMEAR =    -5;   SIGMA  =   0.05  broadening in eV -4-tet -1-fermi 0-gaus

 Electronic relaxation 2 (details)
   IALGO  =     38    algorithm
   LDIAG  =      T    sub-space diagonalisation (order eigenvalues)
   LSUBROT=      F    optimize rotation matrix (better conditioning)
   TURBO    =      0    0=normal 1=particle mesh
   IRESTART =      0    0=no restart 2=restart with 2 vectors
   NREBOOT  =      0    no. of reboots
   NMIN     =      0    reboot dimension
   EREF     =   0.00    reference energy to select bands
   IMIX   =      4    mixing-type and parameters
     AMIX     =   0.40;   BMIX     =  1.00
     AMIX_MAG =   1.60;   BMIX_MAG =  1.00
     AMIN     =   0.01
     WC   =   100.;   INIMIX=   1;  MIXPRE=   1;  MAXMIX= -45

 Intra band minimization:
   WEIMIN = 0.0010     energy-eigenvalue tresh-hold
   EBREAK =  0.63E-06  absolut break condition
   DEPER  =   0.30     relativ break condition  

   TIME   =   0.40     timestep for ELM

  volume/ion in A,a.u.               =      96.88       653.80
  Fermi-wavevector in a.u.,A,eV,Ry     =   0.636722  1.203230  5.516004  0.405415
  Thomas-Fermi vector in A             =   1.701488

 Write flags
   LWAVE        =      F    write WAVECAR
   LDOWNSAMPLE  =      F    k-point downsampling of WAVECAR
   LCHARG       =      T    write CHGCAR
   LVTOT        =      F    write LOCPOT, total local potential
   LVHAR        =      F    write LOCPOT, Hartree potential only
   LELF         =      F    write electronic localiz. function (ELF)
   LORBIT       =     11    0 simple, 1 ext, 2 COOP (PROOUT), +10 PAW based schemes


 Dipole corrections
   LMONO  =      F    monopole corrections only (constant potential shift)
   LDIPOL =      F    correct potential (dipole corrections)
   IDIPOL =      0    1-x, 2-y, 3-z, 4-all directions 
   EPSILON=  1.0000000 bulk dielectric constant

 Exchange correlation treatment:
   GGA     =    BO    GGA type
   LEXCH   =    42    internal setting for exchange type
   VOSKOWN=      0    Vosko Wilk Nusair interpolation
   LHFCALC =     F    Hartree Fock is set to
   LHFONE  =     F    Hartree Fock one center treatment
   AEXX    =    0.0000 exact exchange contribution

 vdW DFT:
   LUSE_VDW   =     T    switch on vdW DFT
   Zab_VDW    =-.8491    correlation parameter
   PARAM1     =0.1833
   PARAM2     =0.2200
   PARAM3     =0.0000
   -- rVV10 --
   BPARAM     = 6.3000
   CPARAM     = 0.0093

 Linear response parameters
   LEPSILON=     F    determine dielectric tensor
   LRPA    =     F    only Hartree local field effects (RPA)
   LNABLA  =     F    use nabla operator in PAW spheres
   LVEL    =     F    velocity operator in full k-point grid
   LINTERFAST=   F  fast interpolation
   KINTER  =     0    interpolate to denser k-point grid
   CSHIFT  =0.1000    complex shift for real part using Kramers Kronig
   OMEGAMAX=  -1.0    maximum frequency
   DEG_THRESHOLD= 0.2000000E-02 threshold for treating states as degnerate
   RTIME   =   -0.100 relaxation time in fs
  (WPLASMAI=    0.000 imaginary part of plasma frequency in eV, 0.658/RTIME)
   DFIELD  = 0.0000000 0.0000000 0.0000000 field for delta impulse in time

 Orbital magnetization related:
   ORBITALMAG=     F  switch on orbital magnetization
   LCHIMAG   =     F  perturbation theory with respect to B field
   DQ        =  0.001000  dq finite difference perturbation B field
   LLRAUG    =     F  two centre corrections for induced B field



--------------------------------------------------------------------------------------------------------


 conjugate gradient relaxation of ions
   using selective dynamics as specified on POSCAR
 charge density and potential will be updated during run
 spin polarized calculation
 Variant of blocked Davidson
 Davidson routine will perform the subspace rotation
 perform sub-space diagonalisation
    after iterative eigenvector-optimisation
 modified Broyden-mixing scheme, WC =      100.0
 initial mixing is a Kerker type mixing with AMIX =  0.4000 and BMIX =      1.0000
 Hartree-type preconditioning will be used
 using additional bands           11
 real space projection scheme for non local part
 use partial core corrections
 calculate Harris-corrections to forces   (improved forces if not selfconsistent)
 use gradient corrections 
 use of overlap-Matrix (Vanderbilt PP)
 Fermi weights with tetrahedron method with Bloechl corrections


--------------------------------------------------------------------------------------------------------


  energy-cutoff  :      520.00
  volume of cell :      968.84
      direct lattice vectors                 reciprocal lattice vectors
     6.907777000 -0.000000000  0.000000000     0.144764372 -0.083579742  0.000000000
     3.453888000  5.982310000  0.000000000     0.000000000  0.167159509 -0.000000000
     0.000000000  0.000000000 23.444588000    -0.000000000  0.000000000  0.042653767

  length of vectors
     6.907777000  6.907776433 23.444588000     0.167159495  0.167159509  0.042653767



 k-points in units of 2pi/SCALE and weight: Kpoints from vasprun.xml                
   0.00000000  0.00000000  0.00000000       0.040
   0.02895287 -0.01671595  0.00000000       0.240
   0.05790575 -0.03343190  0.00000000       0.240
   0.05790575  0.00000000  0.00000000       0.240
  -0.05790575  0.06686380  0.00000000       0.240

 k-points in reciprocal lattice and weights: Kpoints from vasprun.xml                
   0.00000000  0.00000000  0.00000000       0.040
   0.20000000  0.00000000  0.00000000       0.240
   0.40000000  0.00000000  0.00000000       0.240
   0.40000000  0.20000000  0.00000000       0.240
  -0.40000000  0.20000000  0.00000000       0.240

 position of ions in fractional coordinates (direct lattice) 
   0.33333300  0.33333300  0.49992500
   0.66666700  0.66666700  0.50007500
   0.00000000  0.00000000  0.44821600
   0.00000000  0.00000000  0.55178400
   0.62635700  0.00042000  0.57375200
   0.00042000  0.37322400  0.57375200
   0.37322400  0.62635700  0.57375200
   0.37364300  0.99958000  0.42624800
   0.99958000  0.62677600  0.42624800
   0.62677600  0.37364300  0.42624800

 position of ions in cartesian coordinates  (Angst):
   3.45388488  1.99410134 11.72053566
   6.90778012  3.98820866 11.72405234
   0.00000000  0.00000000 10.50823946
   0.00000000  0.00000000 12.93634854
   4.32818511  0.00251257 13.45137925
   1.29197516  2.23274167 13.45137925
   4.74151509  3.74706174 13.45137925
   6.03347989  5.97979743  9.99320875
   9.06968984  3.74956833  9.99320875
   5.62014991  2.23524826  9.99320875



--------------------------------------------------------------------------------------------------------


 k-point  1 :   0.0000 0.0000 0.0000  plane waves:   26073
 k-point  2 :   0.2000 0.0000 0.0000  plane waves:   26070
 k-point  3 :   0.4000 0.0000 0.0000  plane waves:   26086
 k-point  4 :   0.4000 0.2000 0.0000  plane waves:   26085
 k-point  5 :  -0.4000 0.2000 0.0000  plane waves:   26115

 maximum and minimum number of plane-waves per node :     26115    26070

 maximum number of plane-waves:     26115
 maximum index in each direction: 
   IXMAX=   13   IYMAX=   12   IZMAX=   43
   IXMIN=  -13   IYMIN=  -13   IZMIN=  -43


 serial   3D FFT for wavefunctions
 parallel 3D FFT for charge:
    minimum data exchange during FFTs selected (reduces bandwidth)


 total amount of memory used by VASP MPI-rank0   173231. kBytes
=======================================================================

   base      :      30000. kBytes
   nonlr-proj:       7052. kBytes
   fftplans  :      20284. kBytes
   grid      :      94580. kBytes
   one-center:        311. kBytes
   wavefun   :      21004. kBytes

     INWAV:  cpu time    0.0000: real time    0.0000
 Broyden mixing: mesh for mixing (old mesh)
   NGX = 25   NGY = 25   NGZ = 87
  (NGX  =108   NGY  =108   NGZ  =360)
  gives a total of  54375 points

 initial charge density was supplied:
 charge density of overlapping atoms calculated
 number of electron      57.0000000 magnetization       6.0000000
 keeping initial charge density in first step


--------------------------------------------------------------------------------------------------------


 Maximum index for non-local projection operator         7247
 Maximum index for augmentation-charges         3407 (set IRDMAX)


--------------------------------------------------------------------------------------------------------


 First call to EWALD:  gamma=   0.179
 Maximum number of real-space cells 4x 4x 1
 Maximum number of reciprocal cells 2x 2x 6

    FEWALD:  cpu time    0.0000: real time    0.0017


--------------------------------------- Iteration      1(   1)  ---------------------------------------


vdW kernel read from vdw_kernel.bindat
  0.0000  0.2424  0.5071  0.7962  1.1119  1.4567  1.8333  2.2446  2.6937  3.1842
  3.7199  4.3049  4.9438  5.6415  6.4036  7.2358  8.1446  9.1372 10.2212 11.4050
 12.6979 14.1099 15.6519 17.3360 19.1751 21.1837 23.3773 25.7729 28.3892 31.2465
 34.3669 37.7748 41.4965 45.5611 50.0000

    POTLOK:  cpu time  121.3680: real time  122.7982
    SETDIJ:  cpu time    0.0760: real time    0.0759
     EDDAV:  cpu time   20.2960: real time   20.3531
 BZINTS: Fermi energy:  6.147767; 57.035881 electrons
         Band energy:  16.926141;  BLOECHL correction: -0.064341
       DOS:  cpu time    0.0040: real time    0.0052
    --------------------------------------------
      LOOP:  cpu time  141.7440: real time  143.2323

 eigenvalue-minimisations  :   800
 total energy-change (2. order) : 0.4373891E+03  (-0.1602714E+04)
 number of electron      57.0000000 magnetization       6.0000000
 augmentation part       57.0000000 magnetization       6.0000000

 Free energy of the ion-electron system (eV)
  ---------------------------------------------------
  alpha Z        PSCENC =        30.28140400
  Ewald energy   TEWEN  =      6221.61188061
  -Hartree energ DENC   =     -8316.22053951
  -exchange      EXHF   =         0.00000000
  -V(xc)+E(xc)   XCENC  =       -57.87150389
  PAW double counting   =      1168.57442061    -1012.39210498
  entropy T*S    EENTRO =         0.00000000
  eigenvalues    EBANDS =        16.92614121
  atomic energy  EATOM  =      2386.47938694
  Solvation  Ediel_sol  =         0.00000000
  ---------------------------------------------------
  free energy    TOTEN  =       437.38908499 eV

  energy without entropy =      437.38908499  energy(sigma->0) =      437.38908499


--------------------------------------------------------------------------------------------------------




--------------------------------------- Iteration      1(   2)  ---------------------------------------


     EDDAV:  cpu time   25.1520: real time   25.2293
 BZINTS: Fermi energy: -0.130502; 57.000000 electrons
         Band energy:-374.220101;  BLOECHL correction: -0.033657
       DOS:  cpu time    0.0040: real time    0.0040
    --------------------------------------------
      LOOP:  cpu time   25.1560: real time   25.2333

 eigenvalue-minimisations  :  1032
 total energy-change (2. order) :-0.3911462E+03  (-0.3735285E+03)
 number of electron      57.0000000 magnetization       6.0000000
 augmentation part       57.0000000 magnetization       6.0000000

 Free energy of the ion-electron system (eV)
  ---------------------------------------------------
  alpha Z        PSCENC =        30.28140400
  Ewald energy   TEWEN  =      6221.61188061
  -Hartree energ DENC   =     -8316.22053951
  -exchange      EXHF   =         0.00000000
  -V(xc)+E(xc)   XCENC  =       -57.87150389
  PAW double counting   =      1168.57442061    -1012.39210498
  entropy T*S    EENTRO =         0.00000000
  eigenvalues    EBANDS =      -374.22010109
  atomic energy  EATOM  =      2386.47938694
  Solvation  Ediel_sol  =         0.00000000
  ---------------------------------------------------
  free energy    TOTEN  =        46.24284268 eV

  energy without entropy =       46.24284268  energy(sigma->0) =       46.24284268


--------------------------------------------------------------------------------------------------------




--------------------------------------- Iteration      1(   3)  ---------------------------------------


     EDDAV:  cpu time   26.9120: real time   27.1480
 BZINTS: Fermi energy: -2.185612; 57.000000 electrons
         Band energy:-465.168041;  BLOECHL correction: -0.017542
       DOS:  cpu time    0.0040: real time    0.0042
    --------------------------------------------
      LOOP:  cpu time   26.9160: real time   27.1522

 eigenvalue-minimisations  :  1136
 total energy-change (2. order) :-0.9094794E+02  (-0.8828602E+02)
 number of electron      57.0000000 magnetization       6.0000000
 augmentation part       57.0000000 magnetization       6.0000000

 Free energy of the ion-electron system (eV)
  ---------------------------------------------------
  alpha Z        PSCENC =        30.28140400
  Ewald energy   TEWEN  =      6221.61188061
  -Hartree energ DENC   =     -8316.22053951
  -exchange      EXHF   =         0.00000000
  -V(xc)+E(xc)   XCENC  =       -57.87150389
  PAW double counting   =      1168.57442061    -1012.39210498
  entropy T*S    EENTRO =         0.00000000
  eigenvalues    EBANDS =      -465.16804060
  atomic energy  EATOM  =      2386.47938694
  Solvation  Ediel_sol  =         0.00000000
  ---------------------------------------------------
  free energy    TOTEN  =       -44.70509682 eV

  energy without entropy =      -44.70509682  energy(sigma->0) =      -44.70509682


--------------------------------------------------------------------------------------------------------




--------------------------------------- Iteration      1(   4)  ---------------------------------------


     EDDAV:  cpu time   27.4360: real time   27.6696
 BZINTS: Fermi energy: -2.308486; 57.000000 electrons
         Band energy:-472.468285;  BLOECHL correction: -0.007612
       DOS:  cpu time    0.0000: real time    0.0035
    --------------------------------------------
      LOOP:  cpu time   27.4360: real time   27.6731

 eigenvalue-minimisations  :  1168
 total energy-change (2. order) :-0.7300244E+01  (-0.6792360E+01)
 number of electron      57.0000000 magnetization       6.0000000
 augmentation part       57.0000000 magnetization       6.0000000

 Free energy of the ion-electron system (eV)
  ---------------------------------------------------
  alpha Z        PSCENC =        30.28140400
  Ewald energy   TEWEN  =      6221.61188061
  -Hartree energ DENC   =     -8316.22053951
  -exchange      EXHF   =         0.00000000
  -V(xc)+E(xc)   XCENC  =       -57.87150389
  PAW double counting   =      1168.57442061    -1012.39210498
  entropy T*S    EENTRO =         0.00000000
  eigenvalues    EBANDS =      -472.46828479
  atomic energy  EATOM  =      2386.47938694
  Solvation  Ediel_sol  =         0.00000000
  ---------------------------------------------------
  free energy    TOTEN  =       -52.00534101 eV

  energy without entropy =      -52.00534101  energy(sigma->0) =      -52.00534101


--------------------------------------------------------------------------------------------------------




--------------------------------------- Iteration      1(   5)  ---------------------------------------


     EDDAV:  cpu time   42.0440: real time   42.7157
 BZINTS: Fermi energy: -2.317612; 57.000000 electrons
         Band energy:-472.770883;  BLOECHL correction: -0.008191
       DOS:  cpu time    0.0080: real time    0.0049
    CHARGE:  cpu time    3.3600: real time    3.4665
    MIXING:  cpu time    0.0520: real time    0.0536
    --------------------------------------------
      LOOP:  cpu time   45.4640: real time   46.2409

 eigenvalue-minimisations  :  1120
 total energy-change (2. order) :-0.3025983E+00  (-0.2924318E+00)
 number of electron      56.9999995 magnetization       5.6783438
 augmentation part       -5.9648269 magnetization       4.5332491

 Broyden mixing:
  rms(total) = 0.22792E+01    rms(broyden)= 0.22792E+01
  rms(prec ) = 0.25564E+01
  weight for this iteration     100.00

 Free energy of the ion-electron system (eV)
  ---------------------------------------------------
  alpha Z        PSCENC =        30.28140400
  Ewald energy   TEWEN  =      6221.61188061
  -Hartree energ DENC   =     -8316.22053951
  -exchange      EXHF   =         0.00000000
  -V(xc)+E(xc)   XCENC  =       -57.87150389
  PAW double counting   =      1168.57442061    -1012.39210498
  entropy T*S    EENTRO =         0.00000000
  eigenvalues    EBANDS =      -472.77088308
  atomic energy  EATOM  =      2386.47938694
  Solvation  Ediel_sol  =         0.00000000
  ---------------------------------------------------
  free energy    TOTEN  =       -52.30793931 eV

  energy without entropy =      -52.30793931  energy(sigma->0) =      -52.30793931


--------------------------------------------------------------------------------------------------------




--------------------------------------- Iteration      1(   6)  ---------------------------------------


    POTLOK:  cpu time  100.2320: real time  101.1663
    SETDIJ:  cpu time    0.0560: real time    0.0563
     EDDAV:  cpu time   44.5320: real time   44.8978
 BZINTS: Fermi energy: -4.986433; 57.000000 electrons
         Band energy:-591.918327;  BLOECHL correction: -0.039203
       DOS:  cpu time    0.0040: real time    0.0060
    CHARGE:  cpu time    3.3440: real time    3.3464
    MIXING:  cpu time    0.0680: real time    0.0680
    --------------------------------------------
      LOOP:  cpu time  148.2360: real time  149.5409

 eigenvalue-minimisations  :  1168
 total energy-change (2. order) :-0.6624534E+02  (-0.4173314E+02)
 number of electron      56.9999993 magnetization       5.5568314
 augmentation part        7.8944503 magnetization       4.1202871

 Broyden mixing:
  rms(total) = 0.61028E+01    rms(broyden)= 0.61027E+01
  rms(prec ) = 0.68714E+01
  weight for this iteration     100.00

 eigenvalues of (default mixing * dielectric matrix)
  average eigenvalue GAMMA=   0.2549
  0.2549

 Free energy of the ion-electron system (eV)
  ---------------------------------------------------
  alpha Z        PSCENC =        30.28140400
  Ewald energy   TEWEN  =      6221.61188061
  -Hartree energ DENC   =     -8271.89432725
  -exchange      EXHF   =         0.00000000
  -V(xc)+E(xc)   XCENC  =       -58.20839557
  PAW double counting   =      1104.32115609     -939.22605898
  entropy T*S    EENTRO =         0.00000000
  eigenvalues    EBANDS =      -591.91832688
  atomic energy  EATOM  =      2386.47938694
  Solvation  Ediel_sol  =         0.00000000
  ---------------------------------------------------
  free energy    TOTEN  =      -118.55328104 eV

  energy without entropy =     -118.55328104  energy(sigma->0) =     -118.55328104


--------------------------------------------------------------------------------------------------------




--------------------------------------- Iteration      1(   7)  ---------------------------------------


    POTLOK:  cpu time   98.6880: real time   98.9522
    SETDIJ:  cpu time    0.0680: real time    0.0684
     EDDAV:  cpu time   41.1920: real time   41.3196
 BZINTS: Fermi energy: -3.437721; 57.000000 electrons
         Band energy:-472.059671;  BLOECHL correction: -0.025471
       DOS:  cpu time    0.0040: real time    0.0060
    CHARGE:  cpu time    3.5320: real time    3.5473
    MIXING:  cpu time    0.0760: real time    0.0787
    --------------------------------------------
      LOOP:  cpu time  143.5600: real time  143.9722

 eigenvalue-minimisations  :  1024
 total energy-change (2. order) : 0.7520316E+02  (-0.1079610E+02)
 number of electron      56.9999994 magnetization       5.5607461
 augmentation part       -1.9861801 magnetization       3.3467033

 Broyden mixing:
  rms(total) = 0.15141E+01    rms(broyden)= 0.15140E+01
  rms(prec ) = 0.15242E+01
  weight for this iteration     100.00

 eigenvalues of (default mixing * dielectric matrix)
  average eigenvalue GAMMA=   0.2878
  0.3150  0.2607

 Free energy of the ion-electron system (eV)
  ---------------------------------------------------
  alpha Z        PSCENC =        30.28140400
  Ewald energy   TEWEN  =      6221.61188061
  -Hartree energ DENC   =     -8307.23434644
  -exchange      EXHF   =         0.00000000
  -V(xc)+E(xc)   XCENC  =       -58.67153256
  PAW double counting   =      1171.75869045    -1015.51593185
  entropy T*S    EENTRO =         0.00000000
  eigenvalues    EBANDS =      -472.05967136
  atomic energy  EATOM  =      2386.47938694
  Solvation  Ediel_sol  =         0.00000000
  ---------------------------------------------------
  free energy    TOTEN  =       -43.35012020 eV

  energy without entropy =      -43.35012020  energy(sigma->0) =      -43.35012020


--------------------------------------------------------------------------------------------------------




--------------------------------------- Iteration      1(   8)  ---------------------------------------


    POTLOK:  cpu time   97.9880: real time   98.7999
    SETDIJ:  cpu time    0.1000: real time    0.0987
     EDDAV:  cpu time   38.9880: real time   39.5837
 BZINTS: Fermi energy: -3.469236; 57.000000 electrons
         Band energy:-474.608765;  BLOECHL correction: -0.011383
       DOS:  cpu time    0.0040: real time    0.0059
    CHARGE:  cpu time    3.4120: real time    3.4272
    MIXING:  cpu time    0.0680: real time    0.0678
    --------------------------------------------
      LOOP:  cpu time  140.5600: real time  141.9832

 eigenvalue-minimisations  :   936
 total energy-change (2. order) :-0.2192647E+01  (-0.1131587E+01)
 number of electron      56.9999994 magnetization       5.5397969
 augmentation part       -2.3849542 magnetization       3.7112684

 Broyden mixing:
  rms(total) = 0.97895E+00    rms(broyden)= 0.97894E+00
  rms(prec ) = 0.98693E+00
  weight for this iteration     100.00

 eigenvalues of (default mixing * dielectric matrix)
  average eigenvalue GAMMA=   0.4749
  0.5764  0.5764  0.2721

 Free energy of the ion-electron system (eV)
  ---------------------------------------------------
  alpha Z        PSCENC =        30.28140400
  Ewald energy   TEWEN  =      6221.61188061
  -Hartree energ DENC   =     -8307.35141374
  -exchange      EXHF   =         0.00000000
  -V(xc)+E(xc)   XCENC  =       -58.16499629
  PAW double counting   =      1173.12353688    -1016.91380083
  entropy T*S    EENTRO =         0.00000000
  eigenvalues    EBANDS =      -474.60876461
  atomic energy  EATOM  =      2386.47938694
  Solvation  Ediel_sol  =         0.00000000
  ---------------------------------------------------
  free energy    TOTEN  =       -45.54276704 eV

  energy without entropy =      -45.54276704  energy(sigma->0) =      -45.54276704


--------------------------------------------------------------------------------------------------------




--------------------------------------- Iteration      1(   9)  ---------------------------------------


    POTLOK:  cpu time  100.0840: real time  100.3901
    SETDIJ:  cpu time    0.0560: real time    0.0568
     EDDAV:  cpu time   46.1600: real time   46.5187
 BZINTS: Fermi energy: -3.430217; 57.000000 electrons
         Band energy:-473.014608;  BLOECHL correction: -0.012616
       DOS:  cpu time    0.0040: real time    0.0062
    CHARGE:  cpu time    3.3640: real time    3.3906
    MIXING:  cpu time    0.0680: real time    0.0678
    --------------------------------------------
      LOOP:  cpu time  149.7360: real time  150.4302

 eigenvalue-minimisations  :  1240
 total energy-change (2. order) :-0.5828428E+00  (-0.8046783E-01)
 number of electron      56.9999994 magnetization       5.5117927
 augmentation part       -2.3364984 magnetization       4.0610517

 Broyden mixing:
  rms(total) = 0.66540E+00    rms(broyden)= 0.66540E+00
  rms(prec ) = 0.67028E+00
  weight for this iteration     100.00

 eigenvalues of (default mixing * dielectric matrix)
  average eigenvalue GAMMA=   0.6906
  0.9950  0.9950  0.2710  0.5013

 Free energy of the ion-electron system (eV)
  ---------------------------------------------------
  alpha Z        PSCENC =        30.28140400
  Ewald energy   TEWEN  =      6221.61188061
  -Hartree energ DENC   =     -8310.43735323
  -exchange      EXHF   =         0.00000000
  -V(xc)+E(xc)   XCENC  =       -57.08029369
  PAW double counting   =      1182.55614000    -1026.52216692
  entropy T*S    EENTRO =         0.00000000
  eigenvalues    EBANDS =      -473.01460753
  atomic energy  EATOM  =      2386.47938694
  Solvation  Ediel_sol  =         0.00000000
  ---------------------------------------------------
  free energy    TOTEN  =       -46.12560982 eV

  energy without entropy =      -46.12560982  energy(sigma->0) =      -46.12560982


--------------------------------------------------------------------------------------------------------




--------------------------------------- Iteration      1(  10)  ---------------------------------------


    POTLOK:  cpu time   99.4360: real time   99.7117
    SETDIJ:  cpu time    0.0560: real time    0.0566
     EDDAV:  cpu time   44.7520: real time   45.4437
 BZINTS: Fermi energy: -3.413227; 57.000000 electrons
         Band energy:-471.757142;  BLOECHL correction: -0.015054
       DOS:  cpu time    0.0040: real time    0.0059
    CHARGE:  cpu time    3.4720: real time    3.5154
    MIXING:  cpu time    0.0760: real time    0.0916
    --------------------------------------------
      LOOP:  cpu time  147.7960: real time  148.8248

 eigenvalue-minimisations  :  1216
 total energy-change (2. order) :-0.3157054E+00  (-0.4390438E-01)
 number of electron      56.9999994 magnetization       5.5018661
 augmentation part       -2.1896817 magnetization       4.4970119

 Broyden mixing:
  rms(total) = 0.29769E+00    rms(broyden)= 0.29769E+00
  rms(prec ) = 0.31068E+00
  weight for this iteration     100.00

 eigenvalues of (default mixing * dielectric matrix)
  average eigenvalue GAMMA=   0.7338
  1.2257  1.2257  0.2706  0.4734  0.4734

 Free energy of the ion-electron system (eV)
  ---------------------------------------------------
  alpha Z        PSCENC =        30.28140400
  Ewald energy   TEWEN  =      6221.61188061
  -Hartree energ DENC   =     -8313.27590285
  -exchange      EXHF   =         0.00000000
  -V(xc)+E(xc)   XCENC  =       -55.39021574
  PAW double counting   =      1188.00860270    -1032.39932862
  entropy T*S    EENTRO =         0.00000000
  eigenvalues    EBANDS =      -471.75714223
  atomic energy  EATOM  =      2386.47938694
  Solvation  Ediel_sol  =         0.00000000
  ---------------------------------------------------
  free energy    TOTEN  =       -46.44131519 eV

  energy without entropy =      -46.44131519  energy(sigma->0) =      -46.44131519


--------------------------------------------------------------------------------------------------------




--------------------------------------- Iteration      1(  11)  ---------------------------------------


    POTLOK:  cpu time   99.8600: real time  100.3597
    SETDIJ:  cpu time    0.0640: real time    0.0649
     EDDAV:  cpu time   45.7200: real time   46.3761
 BZINTS: Fermi energy: -3.411056; 57.000000 electrons
         Band energy:-471.508009;  BLOECHL correction: -0.015348
       DOS:  cpu time    0.0040: real time    0.0061
    CHARGE:  cpu time    3.3880: real time    3.4242
    MIXING:  cpu time    0.0720: real time    0.0736
    --------------------------------------------
      LOOP:  cpu time  149.1080: real time  150.3046

 eigenvalue-minimisations  :  1240
 total energy-change (2. order) :-0.3741842E-01  (-0.2034238E-01)
 number of electron      56.9999994 magnetization       5.4876739
 augmentation part       -2.1978726 magnetization       4.6371595

 Broyden mixing:
  rms(total) = 0.16131E+00    rms(broyden)= 0.16131E+00
  rms(prec ) = 0.16940E+00
  weight for this iteration     100.00

 eigenvalues of (default mixing * dielectric matrix)
  average eigenvalue GAMMA=   0.7802
  1.4333  1.4333  0.6316  0.6316  0.2712  0.2806

 Free energy of the ion-electron system (eV)
  ---------------------------------------------------
  alpha Z        PSCENC =        30.28140400
  Ewald energy   TEWEN  =      6221.61188061
  -Hartree energ DENC   =     -8314.05579133
  -exchange      EXHF   =         0.00000000
  -V(xc)+E(xc)   XCENC  =       -54.74552762
  PAW double counting   =      1189.12298589    -1033.66506339
  entropy T*S    EENTRO =         0.00000000
  eigenvalues    EBANDS =      -471.50800871
  atomic energy  EATOM  =      2386.47938694
  Solvation  Ediel_sol  =         0.00000000
  ---------------------------------------------------
  free energy    TOTEN  =       -46.47873361 eV

  energy without entropy =      -46.47873361  energy(sigma->0) =      -46.47873361


--------------------------------------------------------------------------------------------------------




--------------------------------------- Iteration      1(  12)  ---------------------------------------


    POTLOK:  cpu time   99.0120: real time   99.6427
    SETDIJ:  cpu time    0.0840: real time    0.0845
     EDDAV:  cpu time   46.2440: real time   46.9323
 BZINTS: Fermi energy: -3.410216; 57.000000 electrons
         Band energy:-471.467432;  BLOECHL correction: -0.014571
       DOS:  cpu time    0.0080: real time    0.0073
    CHARGE:  cpu time    3.3960: real time    3.4825
    MIXING:  cpu time    0.0920: real time    0.0927
    --------------------------------------------
      LOOP:  cpu time  148.8400: real time  150.2420

 eigenvalue-minimisations  :  1232
 total energy-change (2. order) :-0.7609561E-02  (-0.7238393E-02)
 number of electron      56.9999994 magnetization       5.4608810
 augmentation part       -2.2591558 magnetization       4.7768838

 Broyden mixing:
  rms(total) = 0.43437E-01    rms(broyden)= 0.43437E-01
  rms(prec ) = 0.45532E-01
  weight for this iteration     100.00

 eigenvalues of (default mixing * dielectric matrix)
  average eigenvalue GAMMA=   0.9097
  2.2008  1.1876  1.1876  0.6179  0.6179  0.2709  0.2853

 Free energy of the ion-electron system (eV)
  ---------------------------------------------------
  alpha Z        PSCENC =        30.28140400
  Ewald energy   TEWEN  =      6221.61188061
  -Hartree energ DENC   =     -8314.66153864
  -exchange      EXHF   =         0.00000000
  -V(xc)+E(xc)   XCENC  =       -54.06964736
  PAW double counting   =      1189.61818675    -1034.27858337
  entropy T*S    EENTRO =         0.00000000
  eigenvalues    EBANDS =      -471.46743210
  atomic energy  EATOM  =      2386.47938694
  Solvation  Ediel_sol  =         0.00000000
  ---------------------------------------------------
  free energy    TOTEN  =       -46.48634317 eV

  energy without entropy =      -46.48634317  energy(sigma->0) =      -46.48634317


--------------------------------------------------------------------------------------------------------




--------------------------------------- Iteration      1(  13)  ---------------------------------------


    POTLOK:  cpu time   99.8160: real time  100.1181
    SETDIJ:  cpu time    0.0560: real time    0.0538
     EDDAV:  cpu time   43.4080: real time   44.2918
 BZINTS: Fermi energy: -3.407156; 57.000000 electrons
         Band energy:-471.602092;  BLOECHL correction: -0.013436
       DOS:  cpu time    0.0040: real time    0.0058
    CHARGE:  cpu time    3.2560: real time    3.2691
    MIXING:  cpu time    0.1240: real time    0.1202
    --------------------------------------------
      LOOP:  cpu time  146.6600: real time  147.8588

 eigenvalue-minimisations  :  1152
 total energy-change (2. order) :-0.2188235E-02  (-0.1871515E-02)
 number of electron      56.9999994 magnetization       5.4259947
 augmentation part       -2.3065515 magnetization       4.8217826

 Broyden mixing:
  rms(total) = 0.47539E-01    rms(broyden)= 0.47539E-01
  rms(prec ) = 0.48965E-01
  weight for this iteration     100.00

 eigenvalues of (default mixing * dielectric matrix)
  average eigenvalue GAMMA=   0.9984
  2.6546  1.3744  1.3744  0.7165  0.7165  0.5927  0.2708  0.2870

 Free energy of the ion-electron system (eV)
  ---------------------------------------------------
  alpha Z        PSCENC =        30.28140400
  Ewald energy   TEWEN  =      6221.61188061
  -Hartree energ DENC   =     -8314.57058902
  -exchange      EXHF   =         0.00000000
  -V(xc)+E(xc)   XCENC  =       -53.95564213
  PAW double counting   =      1188.46944121    -1033.20232056
  entropy T*S    EENTRO =         0.00000000
  eigenvalues    EBANDS =      -471.60209245
  atomic energy  EATOM  =      2386.47938694
  Solvation  Ediel_sol  =         0.00000000
  ---------------------------------------------------
  free energy    TOTEN  =       -46.48853140 eV

  energy without entropy =      -46.48853140  energy(sigma->0) =      -46.48853140


--------------------------------------------------------------------------------------------------------




--------------------------------------- Iteration      1(  14)  ---------------------------------------


    POTLOK:  cpu time   99.4960: real time  100.2860
    SETDIJ:  cpu time    0.0560: real time    0.0544
     EDDAV:  cpu time   42.7920: real time   43.5480
 BZINTS: Fermi energy: -3.401487; 57.000000 electrons
         Band energy:-471.513524;  BLOECHL correction: -0.013693
       DOS:  cpu time    0.0040: real time    0.0061
    CHARGE:  cpu time    3.3280: real time    3.4870
    MIXING:  cpu time    0.0760: real time    0.0756
    --------------------------------------------
      LOOP:  cpu time  145.7520: real time  147.4569

 eigenvalue-minimisations  :  1112
 total energy-change (2. order) :-0.4099872E-03  (-0.4784789E-03)
 number of electron      56.9999994 magnetization       5.4090786
 augmentation part       -2.2929305 magnetization       4.7987127

 Broyden mixing:
  rms(total) = 0.18137E-01    rms(broyden)= 0.18137E-01
  rms(prec ) = 0.18964E-01
  weight for this iteration     100.00

 eigenvalues of (default mixing * dielectric matrix)
  average eigenvalue GAMMA=   0.9775
  2.5823  1.4180  1.4180  0.8001  0.8001  0.6104  0.6104  0.2708  0.2869

 Free energy of the ion-electron system (eV)
  ---------------------------------------------------
  alpha Z        PSCENC =        30.28140400
  Ewald energy   TEWEN  =      6221.61188061
  -Hartree energ DENC   =     -8314.63871056
  -exchange      EXHF   =         0.00000000
  -V(xc)+E(xc)   XCENC  =       -54.02321518
  PAW double counting   =      1188.29451080    -1032.98067442
  entropy T*S    EENTRO =         0.00000000
  eigenvalues    EBANDS =      -471.51352359
  atomic energy  EATOM  =      2386.47938694
  Solvation  Ediel_sol  =         0.00000000
  ---------------------------------------------------
  free energy    TOTEN  =       -46.48894139 eV

  energy without entropy =      -46.48894139  energy(sigma->0) =      -46.48894139


--------------------------------------------------------------------------------------------------------




--------------------------------------- Iteration      1(  15)  ---------------------------------------


    POTLOK:  cpu time   97.9440: real time   98.4772
    SETDIJ:  cpu time    0.0680: real time    0.0652
     EDDAV:  cpu time   40.5240: real time   40.8315
 BZINTS: Fermi energy: -3.399930; 57.000000 electrons
         Band energy:-471.337704;  BLOECHL correction: -0.013815
       DOS:  cpu time    0.0040: real time    0.0053
    CHARGE:  cpu time    3.6000: real time    3.6540
    MIXING:  cpu time    0.1560: real time    0.1589
    --------------------------------------------
      LOOP:  cpu time  142.2960: real time  143.1921

 eigenvalue-minimisations  :   984
 total energy-change (2. order) :-0.1404699E-02  (-0.2887697E-03)
 number of electron      56.9999994 magnetization       5.3835719
 augmentation part       -2.2841579 magnetization       4.7607802

 Broyden mixing:
  rms(total) = 0.11005E-01    rms(broyden)= 0.11005E-01
  rms(prec ) = 0.11568E-01
  weight for this iteration     100.00

 eigenvalues of (default mixing * dielectric matrix)
  average eigenvalue GAMMA=   1.0084
  2.5834  1.4597  1.4597  0.9996  0.9996  0.7005  0.7005  0.6236  0.2708  0.2869

 Free energy of the ion-electron system (eV)
  ---------------------------------------------------
  alpha Z        PSCENC =        30.28140400
  Ewald energy   TEWEN  =      6221.61188061
  -Hartree energ DENC   =     -8314.78130800
  -exchange      EXHF   =         0.00000000
  -V(xc)+E(xc)   XCENC  =       -54.04759496
  PAW double counting   =      1188.09905252    -1032.79546292
  entropy T*S    EENTRO =         0.00000000
  eigenvalues    EBANDS =      -471.33770428
  atomic energy  EATOM  =      2386.47938694
  Solvation  Ediel_sol  =         0.00000000
  ---------------------------------------------------
  free energy    TOTEN  =       -46.49034609 eV

  energy without entropy =      -46.49034609  energy(sigma->0) =      -46.49034609


--------------------------------------------------------------------------------------------------------




--------------------------------------- Iteration      1(  16)  ---------------------------------------


    POTLOK:  cpu time   97.7600: real time   98.3447
    SETDIJ:  cpu time    0.1000: real time    0.0981
     EDDAV:  cpu time   36.5640: real time   36.9769
 BZINTS: Fermi energy: -3.396277; 57.000000 electrons
         Band energy:-471.056968;  BLOECHL correction: -0.013860
       DOS:  cpu time    0.0080: real time    0.0058
    CHARGE:  cpu time    3.3000: real time    3.3037
    MIXING:  cpu time    0.0880: real time    0.0906
    --------------------------------------------
      LOOP:  cpu time  137.8200: real time  138.8198

 eigenvalue-minimisations  :   848
 total energy-change (2. order) :-0.4638685E-03  (-0.1618630E-03)
 number of electron      56.9999994 magnetization       5.3553380
 augmentation part       -2.2797188 magnetization       4.7312247

 Broyden mixing:
  rms(total) = 0.80104E-02    rms(broyden)= 0.80104E-02
  rms(prec ) = 0.86923E-02
  weight for this iteration     100.00

 eigenvalues of (default mixing * dielectric matrix)
  average eigenvalue GAMMA=   1.0636
  2.6648  1.9255  1.3923  1.3923  0.9086  0.9086  0.2708  0.2869  0.6740  0.6740
  0.6023

 Free energy of the ion-electron system (eV)
  ---------------------------------------------------
  alpha Z        PSCENC =        30.28140400
  Ewald energy   TEWEN  =      6221.61188061
  -Hartree energ DENC   =     -8315.05961155
  -exchange      EXHF   =         0.00000000
  -V(xc)+E(xc)   XCENC  =       -54.05382678
  PAW double counting   =      1188.03588292    -1032.72895840
  entropy T*S    EENTRO =         0.00000000
  eigenvalues    EBANDS =      -471.05696769
  atomic energy  EATOM  =      2386.47938694
  Solvation  Ediel_sol  =         0.00000000
  ---------------------------------------------------
  free energy    TOTEN  =       -46.49080996 eV

  energy without entropy =      -46.49080996  energy(sigma->0) =      -46.49080996


--------------------------------------------------------------------------------------------------------




--------------------------------------- Iteration      1(  17)  ---------------------------------------


    POTLOK:  cpu time   99.1960: real time   99.6588
    SETDIJ:  cpu time    0.0560: real time    0.0582
     EDDAV:  cpu time   34.4440: real time   34.8690
 BZINTS: Fermi energy: -3.390385; 57.000000 electrons
         Band energy:-470.754676;  BLOECHL correction: -0.013834
       DOS:  cpu time    0.0040: real time    0.0056
    CHARGE:  cpu time    3.3480: real time    3.3689
    MIXING:  cpu time    0.0920: real time    0.0926
    --------------------------------------------
      LOOP:  cpu time  137.1400: real time  138.0531

 eigenvalue-minimisations  :   832
 total energy-change (2. order) : 0.2495607E-02  (-0.1629757E-03)
 number of electron      56.9999994 magnetization       5.3174302
 augmentation part       -2.2800643 magnetization       4.6931116

 Broyden mixing:
  rms(total) = 0.60391E-02    rms(broyden)= 0.60390E-02
  rms(prec ) = 0.67661E-02
  weight for this iteration     100.00

 eigenvalues of (default mixing * dielectric matrix)
  average eigenvalue GAMMA=   1.1253
  3.0780  2.3048  1.4190  1.4190  0.9914  0.9914  0.2708  0.2869  0.7436  0.7436
  0.6108  0.6446

 Free energy of the ion-electron system (eV)
  ---------------------------------------------------
  alpha Z        PSCENC =        30.28140400
  Ewald energy   TEWEN  =      6221.61188061
  -Hartree energ DENC   =     -8315.35182412
  -exchange      EXHF   =         0.00000000
  -V(xc)+E(xc)   XCENC  =       -54.05711687
  PAW double counting   =      1187.86745273    -1032.56482183
  entropy T*S    EENTRO =         0.00000000
  eigenvalues    EBANDS =      -470.75467582
  atomic energy  EATOM  =      2386.47938694
  Solvation  Ediel_sol  =         0.00000000
  ---------------------------------------------------
  free energy    TOTEN  =       -46.48831435 eV

  energy without entropy =      -46.48831435  energy(sigma->0) =      -46.48831435


--------------------------------------------------------------------------------------------------------




--------------------------------------- Iteration      1(  18)  ---------------------------------------


    POTLOK:  cpu time   97.6840: real time   98.6183
    SETDIJ:  cpu time    0.0600: real time    0.0631
     EDDAV:  cpu time   35.6160: real time   36.1057
 BZINTS: Fermi energy: -3.382071; 57.000000 electrons
         Band energy:-470.335472;  BLOECHL correction: -0.013802
       DOS:  cpu time    0.0040: real time    0.0058
    CHARGE:  cpu time    3.3520: real time    3.4478
    MIXING:  cpu time    0.0920: real time    0.0928
    --------------------------------------------
      LOOP:  cpu time  136.8080: real time  138.3335

 eigenvalue-minimisations  :   832
 total energy-change (2. order) : 0.1773818E-02  (-0.2929194E-04)
 number of electron      56.9999994 magnetization       5.2818466
 augmentation part       -2.2819942 magnetization       4.6611142

 Broyden mixing:
  rms(total) = 0.47552E-02    rms(broyden)= 0.47552E-02
  rms(prec ) = 0.53014E-02
  weight for this iteration     100.00

 eigenvalues of (default mixing * dielectric matrix)
  average eigenvalue GAMMA=   1.2606
  4.5471  2.4018  1.5084  1.3393  1.3393  1.0013  1.0013  0.2708  0.2869  0.7219
  0.7219  0.6241  0.6241

 Free energy of the ion-electron system (eV)
  ---------------------------------------------------
  alpha Z        PSCENC =        30.28140400
  Ewald energy   TEWEN  =      6221.61188061
  -Hartree energ DENC   =     -8315.77964324
  -exchange      EXHF   =         0.00000000
  -V(xc)+E(xc)   XCENC  =       -54.04625674
  PAW double counting   =      1187.78792947    -1032.48576936
  entropy T*S    EENTRO =         0.00000000
  eigenvalues    EBANDS =      -470.33547220
  atomic energy  EATOM  =      2386.47938694
  Solvation  Ediel_sol  =         0.00000000
  ---------------------------------------------------
  free energy    TOTEN  =       -46.48654053 eV

  energy without entropy =      -46.48654053  energy(sigma->0) =      -46.48654053


--------------------------------------------------------------------------------------------------------




--------------------------------------- Iteration      1(  19)  ---------------------------------------


    POTLOK:  cpu time   97.3880: real time   97.9051
    SETDIJ:  cpu time    0.0880: real time    0.0887
     EDDAV:  cpu time   36.1320: real time   36.3511
 BZINTS: Fermi energy: -3.374717; 57.000000 electrons
         Band energy:-469.932140;  BLOECHL correction: -0.013706
       DOS:  cpu time    0.0040: real time    0.0059
    CHARGE:  cpu time    3.6440: real time    3.6491
    MIXING:  cpu time    0.1200: real time    0.1193
    --------------------------------------------
      LOOP:  cpu time  137.3760: real time  138.1191

 eigenvalue-minimisations  :   864
 total energy-change (2. order) :-0.1531449E-02  (-0.3373780E-04)
 number of electron      56.9999994 magnetization       5.2540480
 augmentation part       -2.2838549 magnetization       4.6401562

 Broyden mixing:
  rms(total) = 0.39013E-02    rms(broyden)= 0.39012E-02
  rms(prec ) = 0.43872E-02
  weight for this iteration     100.00

 eigenvalues of (default mixing * dielectric matrix)
  average eigenvalue GAMMA=   1.4214
  6.7180  2.4087  2.0088  1.4092  1.4092  0.9671  0.9671  0.2708  0.2869  0.7832
  0.7832  0.5978  0.6446  0.6446

 Free energy of the ion-electron system (eV)
  ---------------------------------------------------
  alpha Z        PSCENC =        30.28140400
  Ewald energy   TEWEN  =      6221.61188061
  -Hartree energ DENC   =     -8316.18823888
  -exchange      EXHF   =         0.00000000
  -V(xc)+E(xc)   XCENC  =       -54.04512441
  PAW double counting   =      1187.76004557    -1032.45528574
  entropy T*S    EENTRO =         0.00000000
  eigenvalues    EBANDS =      -469.93214008
  atomic energy  EATOM  =      2386.47938694
  Solvation  Ediel_sol  =         0.00000000
  ---------------------------------------------------
  free energy    TOTEN  =       -46.48807198 eV

  energy without entropy =      -46.48807198  energy(sigma->0) =      -46.48807198


--------------------------------------------------------------------------------------------------------




--------------------------------------- Iteration      1(  20)  ---------------------------------------


    POTLOK:  cpu time   98.3880: real time   98.6100
    SETDIJ:  cpu time    0.1160: real time    0.1171
     EDDAV:  cpu time   37.0920: real time   37.4812
 BZINTS: Fermi energy: -3.368776; 57.000000 electrons
         Band energy:-469.608000;  BLOECHL correction: -0.013634
       DOS:  cpu time    0.0040: real time    0.0048
    CHARGE:  cpu time    3.1160: real time    3.1145
    MIXING:  cpu time    0.1560: real time    0.1557
    --------------------------------------------
      LOOP:  cpu time  138.8720: real time  139.4834

 eigenvalue-minimisations  :   872
 total energy-change (2. order) :-0.1435882E-02  (-0.2612493E-04)
 number of electron      56.9999994 magnetization       5.2402010
 augmentation part       -2.2839335 magnetization       4.6314558

 Broyden mixing:
  rms(total) = 0.19203E-02    rms(broyden)= 0.19203E-02
  rms(prec ) = 0.26087E-02
  weight for this iteration     100.00

 eigenvalues of (default mixing * dielectric matrix)
  average eigenvalue GAMMA=   1.5943
  9.1516  2.5231  2.3388  1.4502  1.4502  0.2708  0.2869  1.0096  1.0096  0.9035
  0.9035  0.6907  0.6907  0.6103  0.6249

 Free energy of the ion-electron system (eV)
  ---------------------------------------------------
  alpha Z        PSCENC =        30.28140400
  Ewald energy   TEWEN  =      6221.61188061
  -Hartree energ DENC   =     -8316.50958301
  -exchange      EXHF   =         0.00000000
  -V(xc)+E(xc)   XCENC  =       -54.05335583
  PAW double counting   =      1187.72503571    -1032.41627601
  entropy T*S    EENTRO =         0.00000000
  eigenvalues    EBANDS =      -469.60800027
  atomic energy  EATOM  =      2386.47938694
  Solvation  Ediel_sol  =         0.00000000
  ---------------------------------------------------
  free energy    TOTEN  =       -46.48950786 eV

  energy without entropy =      -46.48950786  energy(sigma->0) =      -46.48950786


--------------------------------------------------------------------------------------------------------




--------------------------------------- Iteration      1(  21)  ---------------------------------------


    POTLOK:  cpu time   97.8280: real time   98.2044
    SETDIJ:  cpu time    0.1080: real time    0.1085
     EDDAV:  cpu time   32.5160: real time   32.6890
 BZINTS: Fermi energy: -3.365165; 57.000000 electrons
         Band energy:-469.412535;  BLOECHL correction: -0.013634
       DOS:  cpu time    0.0040: real time    0.0053
    CHARGE:  cpu time    3.5920: real time    3.5966
    MIXING:  cpu time    0.1280: real time    0.1302
    --------------------------------------------
      LOOP:  cpu time  134.1760: real time  134.7339

 eigenvalue-minimisations  :   752
 total energy-change (2. order) :-0.5207825E-03  (-0.1088565E-04)
 number of electron      56.9999994 magnetization       5.2373915
 augmentation part       -2.2824607 magnetization       4.6306462

 Broyden mixing:
  rms(total) = 0.93603E-03    rms(broyden)= 0.93602E-03
  rms(prec ) = 0.18037E-02
  weight for this iteration     100.00

 eigenvalues of (default mixing * dielectric matrix)
  average eigenvalue GAMMA=   1.6258
 10.0429  2.7067  2.3141  1.4650  1.4650  1.0921  1.0921  0.9558  0.9558  0.2708
  0.2869  0.7280  0.7280  0.6078  0.6661  0.6351

 Free energy of the ion-electron system (eV)
  ---------------------------------------------------
  alpha Z        PSCENC =        30.28140400
  Ewald energy   TEWEN  =      6221.61188061
  -Hartree energ DENC   =     -8316.70699248
  -exchange      EXHF   =         0.00000000
  -V(xc)+E(xc)   XCENC  =       -54.05456108
  PAW double counting   =      1187.73553771    -1032.42414910
  entropy T*S    EENTRO =         0.00000000
  eigenvalues    EBANDS =      -469.41253525
  atomic energy  EATOM  =      2386.47938694
  Solvation  Ediel_sol  =         0.00000000
  ---------------------------------------------------
  free energy    TOTEN  =       -46.49002865 eV

  energy without entropy =      -46.49002865  energy(sigma->0) =      -46.49002865


--------------------------------------------------------------------------------------------------------




--------------------------------------- Iteration      1(  22)  ---------------------------------------


    POTLOK:  cpu time   97.8160: real time   98.0384
    SETDIJ:  cpu time    0.1040: real time    0.1056
     EDDAV:  cpu time   30.5760: real time   30.8779
 BZINTS: Fermi energy: -3.363565; 57.000000 electrons
         Band energy:-469.320428;  BLOECHL correction: -0.013636
       DOS:  cpu time    0.0040: real time    0.0047
    --------------------------------------------
      LOOP:  cpu time  128.5000: real time  129.0264

 eigenvalue-minimisations  :   672
 total energy-change (2. order) :-0.1392677E-04  (-0.2941587E-05)
 number of electron      56.9999994 magnetization       5.2373915
 augmentation part       -2.2824607 magnetization       4.6306462

 Free energy of the ion-electron system (eV)
  ---------------------------------------------------
  alpha Z        PSCENC =        30.28140400
  Ewald energy   TEWEN  =      6221.61188061
  -Hartree energ DENC   =     -8316.79892045
  -exchange      EXHF   =         0.00000000
  -V(xc)+E(xc)   XCENC  =       -54.05325326
  PAW double counting   =      1187.73895418    -1032.42906636
  entropy T*S    EENTRO =         0.00000000
  eigenvalues    EBANDS =      -469.32042825
  atomic energy  EATOM  =      2386.47938694
  Solvation  Ediel_sol  =         0.00000000
  ---------------------------------------------------
  free energy    TOTEN  =       -46.49004257 eV

  energy without entropy =      -46.49004257  energy(sigma->0) =      -46.49004257


--------------------------------------------------------------------------------------------------------




 average (electrostatic) potential at core
  the test charge radii are     1.1394  0.9892  0.9587  1.0808
  (the norm of the test charge is              1.0000)
[...]
     18      -5.4925      1.00000
     19      -5.3200      1.00000
     20      -5.0301      1.00000
     21      -4.8410      1.00000
     22      -4.4837      1.00000
     23      -4.3601      1.00000
     24      -4.0896      1.00000
     25      -4.0533      1.00000
     26      -2.8209      1.07459
     27      -1.6232      0.00000
     28      -1.4568      0.00000
     29      -1.3325      0.00000
     30      -0.9898      0.00000
     31      -0.8732      0.00000
     32      -0.8232      0.00000
     33      -0.6088      0.00000
     34      -0.3971      0.00000
     35      -0.2348      0.00000
     36      -0.0103      0.00000
     37       0.2919      0.00000
     38       0.4211      0.00000
     39       0.7393      0.00000
     40       1.4677      0.00000

 k-point     5 :      -0.4000    0.2000    0.0000
  band No.  band energies     occupation 
      1     -16.8823      1.00000
      2     -16.2506      1.00000
      3     -16.0190      1.00000
      4     -15.9426      1.00000
      5     -15.6387      1.00000
      6     -15.5166      1.00000
      7     -12.7039      1.00000
      8      -9.8932      1.00000
      9      -8.0271      1.00000
     10      -7.5352      1.00000
     11      -7.4432      1.00000
     12      -6.9297      1.00000
     13      -6.7904      1.00000
     14      -6.2397      1.00000
     15      -5.9679      1.00000
     16      -5.7764      1.00000
     17      -5.7496      1.00000
     18      -5.2788      1.00000
     19      -5.2273      1.00000
     20      -5.1209      1.00000
     21      -4.8528      1.00000
     22      -4.4242      1.00000
     23      -4.2560      1.00000
     24      -4.1711      1.00000
     25      -4.1048      1.00000
     26      -3.2099      1.00000
     27      -1.7490      0.00000
     28      -1.6566      0.00000
     29      -1.3670      0.00000
     30      -0.9741      0.00000
     31      -0.8815      0.00000
     32      -0.8725      0.00000
     33      -0.5919      0.00000
     34      -0.5206      0.00000
     35      -0.1519      0.00000
     36      -0.0147      0.00000
     37       0.0016      0.00000
     38       0.4899      0.00000
     39       0.7614      0.00000
     40       1.3588      0.00000


--------------------------------------------------------------------------------------------------------


 soft charge-density along one line, spin component           1
         0         1         2         3         4         5         6         7         8         9
 total charge-density along one line

 soft charge-density along one line, spin component           2
         0         1         2         3         4         5         6         7         8         9
 total charge-density along one line

 pseudopotential strength for first ion, spin component:           1
 -8.867   0.088  -0.000   0.014  -0.000   0.705  -0.024   0.000
  0.088  -8.781   0.000   0.000   0.014  -0.024   0.681  -0.000
 -0.000   0.000  -8.953   0.000   0.000   0.000  -0.000   0.728
  0.014   0.000   0.000  -8.781  -0.088  -0.004  -0.000  -0.000
 -0.000   0.014   0.000  -0.088  -8.867   0.000  -0.004  -0.000
  0.705  -0.024   0.000  -0.004   0.000   0.358   0.006  -0.000
 -0.024   0.681  -0.000  -0.000  -0.004   0.006   0.363   0.000
  0.000  -0.000   0.728  -0.000  -0.000  -0.000   0.000   0.352
 -0.004  -0.000  -0.000   0.681   0.024   0.001   0.000   0.000
  0.000  -0.004  -0.000   0.024   0.705  -0.000   0.001   0.000
 -0.000  -0.000  -0.000  -0.000   0.000  -0.000   0.000   0.000
  0.000   0.000  -0.000   0.000  -0.000  -0.000  -0.000  -0.000
  0.000   0.006   0.000  -0.000   0.001   0.000  -0.001  -0.000
 -0.000  -0.000   0.006  -0.000  -0.000   0.000   0.000  -0.001
  0.001  -0.000   0.000   0.006  -0.000  -0.000   0.000  -0.000
 -0.000  -0.003  -0.000   0.000  -0.001   0.000   0.001   0.000
  0.000   0.000  -0.003   0.000   0.000  -0.000  -0.000   0.001
 -0.001   0.000  -0.000  -0.003   0.000   0.000  -0.000   0.000
 pseudopotential strength for first ion, spin component:           2
 -7.297  -0.169  -0.000  -0.022  -0.000   0.261   0.044   0.000
 -0.169  -7.481   0.000   0.000  -0.022   0.044   0.309  -0.000
 -0.000   0.000  -7.163   0.000   0.000   0.000  -0.000   0.226
 -0.022   0.000   0.000  -7.481   0.169   0.006  -0.000  -0.000
 -0.000  -0.022   0.000   0.169  -7.297   0.000   0.006  -0.000
  0.261   0.044   0.000   0.006   0.000   0.479  -0.011  -0.000
  0.044   0.309  -0.000  -0.000   0.006  -0.011   0.467   0.000
  0.000  -0.000   0.226  -0.000  -0.000  -0.000   0.000   0.488
  0.006  -0.000  -0.000   0.309  -0.044  -0.001   0.000   0.000
  0.000   0.006  -0.000  -0.044   0.261  -0.000  -0.001   0.000
 -0.000  -0.000   0.005  -0.000   0.000  -0.000   0.000  -0.001
  0.000   0.000  -0.001   0.000  -0.000  -0.000  -0.000   0.000
  0.000   0.005   0.000  -0.000   0.001  -0.000  -0.001  -0.000
 -0.000  -0.000   0.005  -0.000   0.000   0.000   0.000  -0.001
  0.001  -0.000   0.000   0.005  -0.000  -0.000   0.000  -0.000
 -0.000  -0.003  -0.000   0.000  -0.001   0.000   0.001   0.000
  0.000   0.000  -0.003   0.000  -0.000  -0.000  -0.000   0.001
 -0.001   0.000  -0.000  -0.003   0.000   0.000  -0.000   0.000
 total augmentation occupancy for first ion, spin component:           1
  0.989  -0.071   0.000   0.013  -0.000   0.059   0.224  -0.000   0.029   0.000  -0.000  -0.000   0.001   0.000   0.012   0.000
 -0.071   0.939  -0.000  -0.000   0.013   0.223   0.288   0.000   0.000   0.029  -0.000  -0.000   0.017  -0.000  -0.003   0.001
  0.000  -0.000   1.041  -0.000  -0.000  -0.000   0.000  -0.112   0.000   0.000  -0.003  -0.011  -0.000   0.008   0.000   0.000
  0.013  -0.000  -0.000   0.939   0.071   0.029  -0.000   0.000   0.288  -0.223   0.000   0.000   0.003   0.000   0.017  -0.000
 -0.000   0.013  -0.000   0.071   0.989  -0.000   0.029   0.000  -0.224   0.059   0.000   0.000   0.012  -0.000  -0.001   0.000
  0.059   0.223  -0.000   0.029  -0.000   0.186   0.087   0.000   0.010  -0.000   0.000  -0.000   0.001   0.000   0.017   0.000
  0.224   0.288   0.000  -0.000   0.029   0.087   0.270   0.000  -0.000   0.010   0.000   0.000   0.015   0.000  -0.005  -0.000
 -0.000   0.000  -0.112   0.000   0.000   0.000   0.000   0.171   0.000  -0.000   0.042  -0.009  -0.000   0.011   0.000   0.000
  0.029   0.000   0.000   0.288  -0.224   0.010  -0.000   0.000   0.270  -0.087   0.000  -0.000   0.005   0.000   0.015  -0.000
  0.000   0.029   0.000  -0.223   0.059  -0.000   0.010  -0.000  -0.087   0.186  -0.000   0.000   0.017  -0.000  -0.001  -0.001
 -0.000  -0.000  -0.003   0.000   0.000   0.000   0.000   0.042   0.000  -0.000   1.070  -0.175   0.000   0.022   0.000   0.000
 -0.000  -0.000  -0.011  -0.000   0.000  -0.000   0.000  -0.009  -0.000   0.000  -0.175   0.069  -0.000  -0.007   0.000  -0.000
  0.001   0.017  -0.000   0.003   0.012   0.001   0.015  -0.000   0.005   0.017  -0.000  -0.000   0.226  -0.000  -0.000  -0.002
  0.000  -0.000   0.008  -0.000  -0.000   0.000   0.000   0.011   0.000  -0.000   0.022  -0.007  -0.000   0.241  -0.000   0.000
  0.012  -0.003   0.000   0.017  -0.001   0.017  -0.005   0.000   0.015  -0.001   0.000   0.000  -0.000  -0.000   0.226  -0.000
  0.000   0.001   0.000  -0.000   0.000   0.000  -0.000   0.000  -0.000  -0.001  -0.000  -0.000  -0.002   0.000  -0.000   0.000
  0.000   0.000   0.001   0.000  -0.000  -0.000   0.000  -0.001  -0.000   0.000  -0.000   0.000   0.000  -0.003   0.000  -0.000
  0.000   0.000   0.000   0.001  -0.000  -0.001   0.000  -0.000  -0.000  -0.000   0.000   0.000   0.000   0.000  -0.002  -0.000
 total augmentation occupancy for first ion, spin component:           2
  0.682  -0.282   0.000  -0.037  -0.000  -0.162   0.062  -0.000   0.005  -0.002  -0.000  -0.000   0.001   0.000  -0.001  -0.000
 -0.282   0.385  -0.000  -0.000  -0.037   0.063  -0.096   0.000  -0.001   0.004  -0.000  -0.000  -0.001   0.000   0.008   0.001
  0.000  -0.000   0.905  -0.000  -0.000  -0.000   0.000  -0.234   0.000   0.000  -0.022  -0.004   0.000   0.001  -0.000  -0.000
 -0.037  -0.000  -0.000   0.385   0.282   0.004   0.001   0.000  -0.096  -0.063   0.000   0.000  -0.008  -0.000  -0.001   0.000
 -0.000  -0.037  -0.000   0.282   0.682   0.002   0.005   0.000  -0.062  -0.162   0.000   0.000  -0.001  -0.000  -0.001   0.001
 -0.162   0.063  -0.000   0.004   0.002   0.001  -0.049   0.000  -0.007  -0.000   0.000   0.000  -0.000  -0.000  -0.005   0.000
  0.062  -0.096   0.000   0.001   0.005  -0.049  -0.049  -0.000   0.000  -0.007   0.000   0.000  -0.001   0.000   0.001   0.000
 -0.000   0.000  -0.234   0.000   0.000   0.000  -0.000   0.057  -0.000  -0.000   0.012   0.004   0.000  -0.000  -0.000   0.000
  0.005  -0.001   0.000  -0.096  -0.062  -0.007   0.000  -0.000  -0.049   0.049   0.000   0.000  -0.001  -0.000  -0.001  -0.000
 -0.002   0.004   0.000  -0.063  -0.162  -0.000  -0.007  -0.000   0.049   0.001  -0.000  -0.000  -0.005   0.000   0.000  -0.000
 -0.000  -0.000  -0.022   0.000   0.000   0.000   0.000   0.012   0.000  -0.000   0.156   0.063  -0.000   0.002   0.000   0.000
 -0.000  -0.000  -0.004   0.000   0.000   0.000   0.000   0.004   0.000  -0.000   0.063  -0.020   0.000   0.001   0.000  -0.000
  0.001  -0.001   0.000  -0.008  -0.001  -0.000  -0.001   0.000  -0.001  -0.005   0.000  -0.000   0.025  -0.000  -0.000   0.003
  0.000   0.000   0.001   0.000  -0.000  -0.000   0.000  -0.000  -0.000   0.000   0.002   0.001  -0.000   0.020  -0.000   0.000
 -0.001   0.008  -0.000  -0.001  -0.001  -0.005   0.001  -0.000  -0.001   0.000   0.000  -0.000  -0.000  -0.000   0.025   0.000
 -0.000   0.001  -0.000   0.000   0.001   0.000   0.000   0.000  -0.000  -0.000   0.000  -0.000   0.003  -0.000   0.000  -0.000
  0.000  -0.000   0.001   0.000  -0.000  -0.000   0.000  -0.000   0.000   0.000   0.000  -0.000  -0.000   0.002   0.000   0.000
  0.001  -0.000   0.000   0.001   0.000  -0.000   0.000  -0.000   0.000  -0.000   0.000   0.000  -0.000  -0.000   0.003   0.000


------------------------ aborting loop because EDIFF is reached ----------------------------------------





 total charge     

# of ion       s       p       d       tot
------------------------------------------
    1        0.348   0.467   4.264   5.079
    2        0.348   0.467   4.267   5.083
    3        0.751   0.842   0.000   1.593
    4        1.093   1.331   0.000   2.424
    5        1.493   2.294   0.044   3.831
    6        1.482   2.282   0.044   3.808
    7        1.491   2.288   0.044   3.822
    8        1.475   2.358   0.038   3.872
    9        1.469   2.358   0.039   3.865
   10        1.473   2.357   0.039   3.868
--------------------------------------------------
tot         11.423  17.043   8.779  37.244



 magnetization (x)

# of ion       s       p       d       tot
------------------------------------------
    1        0.036   0.039   2.815   2.890
    2        0.035   0.039   2.813   2.888
    3        0.005   0.021   0.000   0.026
    4       -0.040   0.004   0.000  -0.036
    5       -0.004  -0.133   0.005  -0.132
    6       -0.003  -0.125   0.005  -0.123
    7       -0.005  -0.137   0.005  -0.138
    8       -0.000  -0.076   0.005  -0.071
    9       -0.001  -0.058   0.005  -0.054
   10       -0.001  -0.070   0.005  -0.066
--------------------------------------------------
tot          0.020  -0.495   5.659   5.184

    CHARGE:  cpu time    1.7680: real time    1.7770
    FORLOC:  cpu time    0.1080: real time    0.1083
    FORNL :  cpu time    5.1560: real time    5.1640
    STRESS:  cpu time   15.5080: real time   15.5378
    FORCOR:  cpu time   68.5920: real time   68.6741
    FORHAR:  cpu time    0.3640: real time    0.3629
    MIXING:  cpu time    0.0440: real time    0.0423
    OFIELD:  cpu time    0.0000: real time    0.0000

  FORCE on cell =-STRESS in cart. coord.  units (eV):
  Direction    XX          YY          ZZ          XY          YZ          ZX
  --------------------------------------------------------------------------------------
  Alpha Z    38.10298    38.10298    38.10298
  Ewald    9100.41254  9100.40999-10730.99073    -0.00110    -0.00044    -0.00080
  Hartree  9431.96592  9431.96629 -9276.89781    -0.00001     0.00005     0.00008
  E(xc)    -219.92409  -219.92409  -219.83514     0.00002     0.00000     0.00002
  Local  -19283.41111-19283.41025 19219.97994     0.00072     0.00020     0.00037
  n-local   324.67092   325.63986   332.15961     0.46013     0.34741     0.35119
  augment    18.00029    18.00037    14.43560    -0.00007     0.00010    -0.00002
  Kinetic   593.47357   586.19804   622.95461    -4.56821     0.11760    -0.14563
  Fock        0.00000     0.00000     0.00000     0.00000     0.00000     0.00000
  -------------------------------------------------------------------------------------
  Total       0.13710     0.13710    -0.09095     0.00000    -0.00000     0.00000
  in kB       0.28529     0.28529    -0.18925     0.00000    -0.00000     0.00000
  external pressure =        0.13 kB  Pullay stress =        0.00 kB


 VOLUME and BASIS-vectors are now :
 -----------------------------------------------------------------------------
  energy-cutoff  :      520.00
  volume of cell :      769.96
      direct lattice vectors                 reciprocal lattice vectors
     6.303723983 -0.000000324 -0.000000000     0.158636383 -0.091588763  0.000000000
     3.151861906  5.459184678 -0.000000000     0.000000009  0.183177531  0.000000000
    -0.000000000 -0.000000000 22.373911595     0.000000000  0.000000000  0.044694912

  length of vectors
     6.303723983  6.303723568 22.373911595     0.183177519  0.183177531  0.044694912


 FORCES acting on ions
    electron-ion (+dipol)            ewald-force                    non-local-force                 convergence-correction
 -----------------------------------------------------------------------------------------------
   -.135E-03 -.753E-04 0.247E+02   0.374E-03 0.220E-03 -.248E+02   -.700E-17 -.347E-19 0.114E+00   0.243E-06 0.140E-06 -.963E-02
   0.131E-03 0.803E-04 0.237E+02   -.395E-03 -.232E-03 -.238E+02   -.533E-19 -.139E-16 0.101E+00   0.132E-06 0.696E-07 -.906E-02
   -.268E-04 -.261E-04 0.174E+03   -.156E-03 -.863E-04 -.172E+03   0.153E-16 0.805E-18 -.265E+01   -.180E-06 -.141E-06 0.411E-02
   0.429E-04 0.397E-04 -.281E+03   0.239E-03 0.133E-03 0.282E+03   -.261E-16 -.146E-16 -.603E+00   -.877E-07 -.338E-07 -.204E-01
   0.460E+01 -.664E-01 -.409E+03   -.672E+01 0.449E-01 0.412E+03   0.211E+01 -.400E-02 -.213E+01   -.483E-02 0.252E-01 -.275E-01
   -.236E+01 -.395E+01 -.409E+03   0.340E+01 0.580E+01 0.412E+03   -.106E+01 -.183E+01 -.213E+01   0.242E-01 -.842E-02 -.275E-01
   -.224E+01 0.402E+01 -.409E+03   0.332E+01 -.585E+01 0.412E+03   -.105E+01 0.183E+01 -.213E+01   -.194E-01 -.168E-01 -.275E-01
   -.216E+01 -.535E-01 0.430E+03   0.371E+01 0.304E-01 -.432E+03   -.156E+01 0.275E-02 0.229E+01   0.545E-02 0.228E-01 0.210E-01
   0.104E+01 0.190E+01 0.430E+03   -.183E+01 -.323E+01 -.432E+03   0.783E+00 0.135E+01 0.229E+01   0.170E-01 -.161E-01 0.210E-01
   0.113E+01 -.185E+01 0.430E+03   -.188E+01 0.320E+01 -.432E+03   0.779E+00 -.135E+01 0.229E+01   -.225E-01 -.668E-02 0.210E-01
 -----------------------------------------------------------------------------------------------
   0.867E-04 0.870E-04 0.256E+01   -.133E-14 0.666E-14 -.114E-12   0.000E+00 -.222E-15 -.254E+01   0.306E-06 0.161E-06 -.544E-01


 POSITION                                       TOTAL-FORCE (eV/Angst)
 -----------------------------------------------------------------------------------
      3.15186      1.81973     11.18528         0.000000     -0.000000      0.002283
      6.30373      3.63946     11.18863         0.000000     -0.000000     -0.009943
     -0.00000     -0.00000     10.27154         0.000000     -0.000000      0.034713
     -0.00000     -0.00000     12.52199         0.000000     -0.000000      0.055771
      3.91538      0.00071     12.76546        -0.015409      0.000346     -0.003298
      1.19479      2.06802     12.76546         0.008004      0.013171     -0.003298
      4.34542      3.39046     12.76546         0.007405     -0.013517     -0.003298
      5.36218      5.45787      9.61678        -0.009980      0.001785     -0.024310
      8.34928      3.54564      9.61678         0.006536      0.007750     -0.024310
      5.19970      1.91485      9.61678         0.003444     -0.009535     -0.024310
 -----------------------------------------------------------------------------------
    total drift:                                0.000087      0.000087     -0.033816


--------------------------------------------------------------------------------------------------------



  FREE ENERGIE OF THE ION-ELECTRON SYSTEM (eV)
  ---------------------------------------------------
  free  energy   TOTEN  =       -49.74963980 eV

  energy  without entropy=      -49.74963980  energy(sigma->0) =      -49.74963980

 d Force = 0.1883050E-03[ 0.974E-04, 0.279E-03]  d Energy =-0.8459774E-04 0.273E-03
 d Force =-0.2240458E+01[-0.224E+01,-0.224E+01]  d Ewald  =-0.5862135E+01 0.362E+01


--------------------------------------------------------------------------------------------------------


    POTLOK:  cpu time   68.8520: real time   68.9112


--------------------------------------------------------------------------------------------------------




--------------------------------------------------------------------------------------------------------


  
 reached required accuracy - stopping structural energy minimisation
     LOOP+:  cpu time  518.7040: real time  519.2937
    4ORBIT:  cpu time    0.0000: real time    0.0000



 total charge     

# of ion       s       p       d       tot
------------------------------------------
    1        0.348   0.467   4.264   5.079
    2        0.348   0.467   4.267   5.083
    3        0.751   0.842   0.000   1.593
    4        1.093   1.331   0.000   2.424
    5        1.493   2.294   0.044   3.831
    6        1.482   2.282   0.044   3.808
    7        1.491   2.288   0.044   3.822
    8        1.475   2.358   0.038   3.872
    9        1.469   2.358   0.039   3.865
   10        1.473   2.357   0.039   3.868
--------------------------------------------------
tot         11.423  17.043   8.779  37.244



 magnetization (x)

# of ion       s       p       d       tot
------------------------------------------
    1        0.036   0.039   2.815   2.890
    2        0.035   0.039   2.813   2.888
    3        0.005   0.021   0.000   0.026
    4       -0.040   0.004   0.000  -0.036
    5       -0.004  -0.133   0.005  -0.132
    6       -0.003  -0.125   0.005  -0.123
    7       -0.005  -0.137   0.005  -0.138
    8       -0.000  -0.076   0.005  -0.071
    9       -0.001  -0.058   0.005  -0.054
   10       -0.001  -0.070   0.005  -0.066
--------------------------------------------------
tot          0.020  -0.495   5.659   5.184

 BZINTS: Fermi energy: -2.300146; 57.000000 electrons
         Band energy:-461.673494;  BLOECHL correction: -0.020270

 total amount of memory used by VASP MPI-rank0   175565. kBytes
=======================================================================

   base      :      30000. kBytes
   nonlr-proj:       9386. kBytes
   fftplans  :      20284. kBytes
   grid      :      94580. kBytes
   one-center:        311. kBytes
   wavefun   :      21004. kBytes

  
  
 General timing and accounting informations for this job:
 ========================================================
  
                  Total CPU time used (sec):    25861.916
                            User time (sec):    25730.168
                          System time (sec):      131.748
                         Elapsed time (sec):    26055.748
  
                   Maximum memory used (kb):      595200.
                   Average memory used (kb):           0.
  
                          Minor page faults:     29457232
                          Major page faults:            7
                 Voluntary context switches:          841
