 vasp.5.4.4.18Apr17-6-g9f103f2a35 (build May  1 2020 15:48:39) complex           
 executed on             LinuxGNU date 2020.07.01  23:34:35
 running on    8 total cores
 distrk:  each k-point on    8 cores,    1 groups
 distr:  one band on NCORES_PER_BAND=   1 cores,    8 groups


--------------------------------------------------------------------------------------------------------


 INCAR:
 POTCAR:   PAW_PBE Cr 06Sep2000                   
 POTCAR:   PAW_PBE Ge 05Jan2001                   
 POTCAR:   PAW_PBE Se 06Sep2000                   

 ----------------------------------------------------------------------------- 
|                                                                             |
|           W    W    AA    RRRRR   N    N  II  N    N   GGGG   !!!           |
|           W    W   A  A   R    R  NN   N  II  NN   N  G    G  !!!           |
|           W    W  A    A  R    R  N N  N  II  N N  N  G       !!!           |
|           W WW W  AAAAAA  RRRRR   N  N N  II  N  N N  G  GGG   !            |
|           WW  WW  A    A  R   R   N   NN  II  N   NN  G    G                |
|           W    W  A    A  R    R  N    N  II  N    N   GGGG   !!!           |
|                                                                             |
|      For optimal performance we recommend to set                            |
|        NCORE= 4 - approx SQRT( number of cores)                             |
|      NCORE specifies how many cores store one orbital (NPAR=cpu/NCORE).     |
|      This setting can  greatly improve the performance of VASP for DFT.     |
|      The default,   NCORE=1            might be grossly inefficient         |
|      on modern multi-core architectures or massively parallel machines.     |
|      Do your own testing !!!!                                               |
|      Unfortunately you need to use the default for GW and RPA calculations. |
|      (for HF NCORE is supported but not extensively tested yet)             |
|                                                                             |
 ----------------------------------------------------------------------------- 


 ----------------------------------------------------------------------------- 
|                                                                             |
|  ADVICE TO THIS USER RUNNING 'VASP/VAMP'   (HEAR YOUR MASTER'S VOICE ...):  |
|                                                                             |
|      You have switched on vdW-DFT.                                          |
|      This routine was written and supplied by Jiri Klimes.                  |
|      We recommed that you carefully read and cite the following             |
|      publication                                                            |
|      J. Klimes, D.R. Bowler, A. Michelides                                  |
|        J. Phys.: Cond Matt. 22 022201 (2010)                                |
|      J. Klimes, D.R. Bowler, A. Michelides                                  |
|        Phys. Rev. B. 83, 195131 (2011)                                      |
|      and references therein.                                                |
|                                                                             |
 ----------------------------------------------------------------------------- 

 POTCAR:   PAW_PBE Cr 06Sep2000                   
   VRHFIN =Cr : d5 s1                                                           
   LEXCH  = PE                                                                  
   EATOM  =   276.9744 eV,   20.3570 Ry                                         
                                                                                
   TITEL  = PAW_PBE Cr 06Sep2000                                                
   LULTRA =        F    use ultrasoft PP ?                                      
   IUNSCR =        1    unscreen: 0-lin 1-nonlin 2-no                           
   RPACOR =    2.080    partial core radius                                     
   POMASS =   51.996; ZVAL   =    6.000    mass and valenz                      
   RCORE  =    2.500    outmost cutoff radius                                   
   RWIGS  =    2.500; RWIGS  =    1.323    wigner-seitz radius (au A)           
   ENMAX  =  227.082; ENMIN  =  170.311 eV                                      
   RCLOC  =    1.721    cutoff for local pot                                    
   LCOR   =        T    correct aug charges                                     
   LPAW   =        T    paw PP                                                  
   EAUG   =  402.108                                                            
   DEXC   =    -.035                                                            
   RMAX   =    3.060    core radius for proj-oper                               
   RAUG   =    1.300    factor for augmentation sphere                          
   RDEP   =    2.609    radius for radial grids                                 
   QCUT   =   -4.085; QGAM   =    8.171    optimization parameters              
                                                                                
   Description                                                                  
     l     E      TYP  RCUT    TYP  RCUT                                        
     2   .000     23  2.500                                                     
     2   .000     23  2.500                                                     
     0   .000     23  2.500                                                     
     0   .000     23  2.500                                                     
     1  -.400     23  2.500                                                     
     1  2.000     23  2.500                                                     
     3   .000      7   .000                                                     
  local pseudopotential read in
  partial core-charges read in
  atomic valenz-charges read in
  non local Contribution for L=           2  read in
    real space projection operators read in
  non local Contribution for L=           2  read in
    real space projection operators read in
  non local Contribution for L=           0  read in
    real space projection operators read in
  non local Contribution for L=           0  read in
    real space projection operators read in
  non local Contribution for L=           1  read in
    real space projection operators read in
  non local Contribution for L=           1  read in
    real space projection operators read in
    PAW grid and wavefunctions read in

   number of l-projection  operators is LMAX  =           6
   number of lm-projection operators is LMMAX =          18

 POTCAR:   PAW_PBE Ge 05Jan2001                   
   VRHFIN =Ge: s2p2                                                             
   LEXCH  = PE                                                                  
   EATOM  =   104.9960 eV,    7.7170 Ry                                         
                                                                                
   TITEL  = PAW_PBE Ge 05Jan2001                                                
   LULTRA =        F    use ultrasoft PP ?                                      
   IUNSCR =        1    unscreen: 0-lin 1-nonlin 2-no                           
   RPACOR =    2.170    partial core radius                                     
   POMASS =   72.610; ZVAL   =    4.000    mass and valenz                      
   RCORE  =    2.300    outmost cutoff radius                                   
   RWIGS  =    2.300; RWIGS  =    1.217    wigner-seitz radius (au A)           
   ENMAX  =  173.807; ENMIN  =  130.355 eV                                      
   ICORE  =        3    local potential                                         
   LCOR   =        T    correct aug charges                                     
   LPAW   =        T    paw PP                                                  
   EAUG   =  385.843                                                            
   DEXC   =    -.138                                                            
   RMAX   =    3.497    core radius for proj-oper                               
   RAUG   =    1.300    factor for augmentation sphere                          
   RDEP   =    2.318    radius for radial grids                                 
   QCUT   =   -3.574; QGAM   =    7.148    optimization parameters              
                                                                                
   Description                                                                  
     l     E      TYP  RCUT    TYP  RCUT                                        
     0   .000     23  2.300                                                     
     0   .000     23  2.300                                                     
     1   .000     23  2.300                                                     
     1   .000     23  2.300                                                     
     2   .000     23  2.300                                                     
     3  -.100      7  2.300                                                     
  local pseudopotential read in
  partial core-charges read in
  atomic valenz-charges read in
  non local Contribution for L=           0  read in
    real space projection operators read in
  non local Contribution for L=           0  read in
    real space projection operators read in
  non local Contribution for L=           1  read in
    real space projection operators read in
  non local Contribution for L=           1  read in
    real space projection operators read in
  non local Contribution for L=           2  read in
    real space projection operators read in
    PAW grid and wavefunctions read in

   number of l-projection  operators is LMAX  =           5
   number of lm-projection operators is LMMAX =          13

 POTCAR:   PAW_PBE Se 06Sep2000                   
   VRHFIN =Se: s2p4                                                             
   LEXCH  = PE                                                                  
   EATOM  =   256.9644 eV,   18.8864 Ry                                         
                                                                                
   TITEL  = PAW_PBE Se 06Sep2000                                                
   LULTRA =        F    use ultrasoft PP ?                                      
   IUNSCR =        1    unscreen: 0-lin 1-nonlin 2-no                           
   RPACOR =    1.900    partial core radius                                     
   POMASS =   78.960; ZVAL   =    6.000    mass and valenz                      
   RCORE  =    2.100    outmost cutoff radius                                   
   RWIGS  =    2.200; RWIGS  =    1.164    wigner-seitz radius (au A)           
   ENMAX  =  211.534; ENMIN  =  158.651 eV                                      
   ICORE  =        3    local potential                                         
   LCOR   =        T    correct aug charges                                     
   LPAW   =        T    paw PP                                                  
   EAUG   =  446.842                                                            
   DEXC   =    -.031                                                            
   RMAX   =    3.170    core radius for proj-oper                               
   RAUG   =    1.300    factor for augmentation sphere                          
   RDEP   =    2.177    radius for radial grids                                 
   QCUT   =   -3.943; QGAM   =    7.886    optimization parameters              
                                                                                
   Description                                                                  
     l     E      TYP  RCUT    TYP  RCUT                                        
     0   .000     23  2.100                                                     
     0   .000     23  2.100                                                     
     1   .000     23  2.100                                                     
     1   .000     23  2.100                                                     
     2   .000     23  2.100                                                     
     3  -.100      7  2.100                                                     
  local pseudopotential read in
  partial core-charges read in
  atomic valenz-charges read in
  non local Contribution for L=           0  read in
    real space projection operators read in
  non local Contribution for L=           0  read in
    real space projection operators read in
  non local Contribution for L=           1  read in
    real space projection operators read in
  non local Contribution for L=           1  read in
    real space projection operators read in
  non local Contribution for L=           2  read in
    real space projection operators read in
    PAW grid and wavefunctions read in

   number of l-projection  operators is LMAX  =           5
   number of lm-projection operators is LMMAX =          13

 Optimization of the real space projectors (new method)

 maximal supplied QI-value         = 15.12
 optimisation between [QCUT,QGAM] = [ 11.64, 23.28] = [ 37.95,151.78] Ry 
 Optimized for a Real-space Cutoff    1.49 Angstroem

   l    n(q)    QCUT    max X(q) W(low)/X(q) W(high)/X(q)  e(spline) 
   2      9    11.641     4.777    0.25E-04    0.21E-05    0.63E-07
   2      9    11.641    31.132    0.13E-03    0.22E-03    0.64E-06
   0     10    11.641    20.416    0.11E-04    0.74E-05    0.19E-07
   0     10    11.641    45.408    0.10E-03    0.85E-04    0.30E-06
   1     10    11.641     7.848    0.22E-04    0.23E-04    0.56E-07
   1     10    11.641     9.895    0.85E-04    0.54E-04    0.16E-06
 Optimization of the real space projectors (new method)

 maximal supplied QI-value         = 16.25
 optimisation between [QCUT,QGAM] = [ 11.54, 23.24] = [ 37.28,151.24] Ry 
 Optimized for a Real-space Cutoff    1.28 Angstroem

   l    n(q)    QCUT    max X(q) W(low)/X(q) W(high)/X(q)  e(spline) 
   0      9    11.539     8.651    0.22E-04    0.16E-04    0.10E-07
   0      9    11.539    33.192    0.11E-03    0.16E-03    0.65E-07
   1      8    11.539     5.899    0.37E-04    0.28E-04    0.43E-07
   1      8    11.539    27.289    0.22E-03    0.28E-04    0.14E-06
   2      8    11.539     4.673    0.11E-03    0.18E-03    0.58E-07
 Optimization of the real space projectors (new method)

 maximal supplied QI-value         = 17.95
 optimisation between [QCUT,QGAM] = [ 11.67, 23.34] = [ 38.13,152.52] Ry 
 Optimized for a Real-space Cutoff    1.25 Angstroem

   l    n(q)    QCUT    max X(q) W(low)/X(q) W(high)/X(q)  e(spline) 
   0      9    11.669     6.499    0.13E-04    0.81E-05    0.11E-07
   0      9    11.669    52.623    0.18E-03    0.46E-04    0.72E-07
   1      8    11.669     4.229    0.40E-04    0.45E-04    0.31E-07
   1      8    11.669    29.991    0.22E-03    0.36E-03    0.10E-06
   2      8    11.669     3.719    0.19E-03    0.46E-04    0.50E-07

 ----------------------------------------------------------------------------- 
|                                                                             |
|  ADVICE TO THIS USER RUNNING 'VASP/VAMP'   (HEAR YOUR MASTER'S VOICE ...):  |
|                                                                             |
|      You enforced a specific xc-type in the INCAR file,                     |
|      a different type was found on the POTCAR file                          |
|          I HOPE YOU KNOW, WHAT YOU ARE  DOING                               |
|                                                                             |
 ----------------------------------------------------------------------------- 

 PAW_PBE Cr 06Sep2000                   :
 energy of atom  1       EATOM= -276.9744
 kinetic energy error for atom=    0.0010 (will be added to EATOM!!)
 PAW_PBE Ge 05Jan2001                   :
 energy of atom  2       EATOM= -104.9960
 kinetic energy error for atom=    0.0002 (will be added to EATOM!!)
 PAW_PBE Se 06Sep2000                   :
 energy of atom  3       EATOM= -256.9644
 kinetic energy error for atom=    0.0007 (will be added to EATOM!!)


 POSCAR: Cr2 Ge2 Se6                             
  positions in direct lattice
  velocities in cartesian coordinates
  No initial velocities read in
 exchange correlation table for  LEXCH =       42
   RHO(1)=    0.500       N(1)  =     2000
   RHO(2)=  100.500       N(2)  =     4000



--------------------------------------------------------------------------------------------------------


 ion  position               nearest neighbor table
   1  0.333  0.333  0.500-   6 2.78   5 2.78   7 2.78   8 2.78  10 2.78   9 2.78
   2  0.667  0.667  0.500-   9 2.78   8 2.78  10 2.78   5 2.78   7 2.78   6 2.78
   3  0.000  0.000  0.448-   4 2.43   8 2.63  10 2.63   9 2.63
   4  0.000  0.000  0.552-   3 2.43   5 2.63   7 2.63   6 2.63
   5  0.626  0.000  0.574-   4 2.63   1 2.78   2 2.78
   6  0.000  0.373  0.574-   4 2.63   1 2.78   2 2.78
   7  0.373  0.626  0.574-   4 2.63   1 2.78   2 2.78
   8  0.374  1.000  0.426-   3 2.63   2 2.78   1 2.78
   9  1.000  0.627  0.426-   3 2.63   2 2.78   1 2.78
  10  0.627  0.374  0.426-   3 2.63   2 2.78   1 2.78

  LATTYP: Found a hexagonal cell.
 ALAT       =     6.9077769333
 C/A-ratio  =     3.3939410937
  
  Lattice vectors:
  
 A1 = (   3.4538890000,  -5.9823100000,   0.0000000000)
 A2 = (  -6.9077770000,   0.0000000000,   0.0000000000)
 A3 = (   0.0000000000,   0.0000000000, -23.4445880000)


Analysis of symmetry for initial positions (statically):
=====================================================================
 Subroutine PRICEL returns:
 Original cell was already a primitive cell.
 

 Routine SETGRP: Setting up the symmetry group for a 
 hexagonal supercell.


 Subroutine GETGRP returns: Found  6 space group operations
 (whereof  6 operations were pure point group operations)
 out of a pool of 24 trial point group operations.


The static configuration has the point symmetry S_6 .


Analysis of symmetry for dynamics (positions and initial velocities):
=====================================================================
 Subroutine PRICEL returns:
 Original cell was already a primitive cell.
 

 Routine SETGRP: Setting up the symmetry group for a 
 hexagonal supercell.


 Subroutine GETGRP returns: Found  6 space group operations
 (whereof  6 operations were pure point group operations)
 out of a pool of 24 trial point group operations.


The dynamic configuration has the point symmetry S_6 .


Analysis of constrained symmetry for selective dynamics:
=====================================================================
 Subroutine PRICEL returns:
 Original cell was already a primitive cell.
 

 Routine SETGRP: Setting up the symmetry group for a 
 hexagonal supercell.


 Subroutine GETGRP returns: Found  6 space group operations
 (whereof  6 operations were pure point group operations)
 out of a pool of 24 trial point group operations.


The constrained configuration has the point symmetry S_6 .


Analysis of structural, dynamic, and magnetic symmetry:
=====================================================================
 Subroutine PRICEL returns:
 Original cell was already a primitive cell.
 

 Routine SETGRP: Setting up the symmetry group for a 
 hexagonal supercell.


 Subroutine GETGRP returns: Found  6 space group operations
 (whereof  6 operations were pure point group operations)
 out of a pool of 24 trial point group operations.


The magnetic configuration has the point symmetry S_6 .


 Subroutine INISYM returns: Found  6 space group operations
 (whereof  6 operations are pure point group operations),
 and found     1 'primitive' translations



 KPOINTS: Kpoints from vasprun.xml                

Automatic generation of k-mesh.
Space group operators:
 irot       det(A)        alpha          n_x          n_y          n_z        tau_x        tau_y        tau_z
    1     1.000000     0.000000     1.000000     0.000000     0.000000     0.000000     0.000000     0.000000
    2    -1.000000     0.000000     1.000000     0.000000     0.000000     0.000000     0.000000     0.000000
    3     1.000000   120.000000     0.000000     0.000000     1.000000     0.000000     0.000000     0.000000
    4    -1.000000   120.000000     0.000000     0.000000     1.000000     0.000000     0.000000     0.000000
    5     1.000000   120.000000     0.000000     0.000000    -1.000000     0.000000     0.000000     0.000000
    6    -1.000000   120.000000     0.000000     0.000000    -1.000000     0.000000     0.000000     0.000000
 
 Subroutine IBZKPT returns following result:
 ===========================================
 
 Found      5 irreducible k-points:
 
 Following reciprocal coordinates:
            Coordinates               Weight
  0.000000  0.000000  0.000000      1.000000
  0.200000  0.000000  0.000000      6.000000
  0.400000  0.000000  0.000000      6.000000
  0.400000  0.200000  0.000000      6.000000
 -0.400000  0.200000  0.000000      6.000000
 
 Following cartesian coordinates:
            Coordinates               Weight
  0.000000  0.000000  0.000000      1.000000
  0.028953 -0.016716  0.000000      6.000000
  0.057906 -0.033432  0.000000      6.000000
  0.057906  0.000000  0.000000      6.000000
 -0.057906  0.066864  0.000000      6.000000
 
 TETIRR: Found     15 inequivalent tetrahedra from      150


--------------------------------------------------------------------------------------------------------




 Dimension of arrays:
   k-points           NKPTS =      5   k-points in BZ     NKDIM =      5   number of bands    NBANDS=     40
   number of dos      NEDOS =    301   number of ions     NIONS =     10
   non local maximal  LDIM  =      6   non local SUM 2l+1 LMDIM =     18
   total plane-waves  NPLWV = 524880
   max r-space proj   IRMAX =   7543   max aug-charges    IRDMAX=  29641
   dimension x,y,z NGX =    54 NGY =   54 NGZ =  180
   dimension x,y,z NGXF=   108 NGYF=  108 NGZF=  360
   support grid    NGXF=   108 NGYF=  108 NGZF=  360
   ions per type =               2   2   6
   NGX,Y,Z   is equivalent  to a cutoff of  13.00, 13.00, 12.76 a.u.
   NGXF,Y,Z  is equivalent  to a cutoff of  25.99, 25.99, 25.53 a.u.

 SYSTEM =  unknown system                          
 POSCAR =  Cr2 Ge2 Se6                             

 Startparameter for this run:
   NWRITE =      2    write-flag & timer
   PREC   = accura    normal or accurate (medium, high low for compatibility)
   ISTART =      0    job   : 0-new  1-cont  2-samecut
   ICHARG =      2    charge: 1-file 2-atom 10-const
   ISPIN  =      2    spin polarized calculation?
   LNONCOLLINEAR =      F non collinear calculations
   LSORBIT =      F    spin-orbit coupling
   INIWAV =      1    electr: 0-lowe 1-rand  2-diag
   LASPH  =      F    aspherical Exc in radial PAW
   METAGGA=      F    non-selfconsistent MetaGGA calc.

 Electronic Relaxation 1
   ENCUT  =  520.0 eV  38.22 Ry    6.18 a.u.  12.84 12.84 43.59*2*pi/ulx,y,z
   ENINI  =  520.0     initial cutoff
   ENAUG  =  446.8 eV  augmentation charge cutoff
   NELM   =    400;   NELMIN=  2; NELMDL=  0     # of ELM steps 
   EDIFF  = 0.1E-03   stopping-criterion for ELM
   LREAL  =      T    real-space projection
   NLSPLINE    = F    spline interpolate recip. space projectors
   LCOMPAT=      F    compatible to vasp.4.4
   GGA_COMPAT  = T    GGA compatible to vasp.4.4-vasp.4.6
   LMAXPAW     = -100 max onsite density
   LMAXMIX     =    2 max onsite mixed and CHGCAR
   VOSKOWN=      0    Vosko Wilk Nusair interpolation
   ROPT   =   -0.00025  -0.00025  -0.00025
 Ionic relaxation
   EDIFFG = 0.1E-02   stopping-criterion for IOM
   NSW    =     99    number of steps for IOM
   NBLOCK =      1;   KBLOCK =     99    inner block; outer block 
   IBRION =      2    ionic relax: 0-MD 1-quasi-New 2-CG
   NFREE  =      1    steps in history (QN), initial steepest desc. (CG)
   ISIF   =      3    stress and relaxation
   IWAVPR =     11    prediction:  0-non 1-charg 2-wave 3-comb
   ISYM   =      2    0-nonsym 1-usesym 2-fastsym
   LCORR  =      T    Harris-Foulkes like correction to forces

   POTIM  = 0.5000    time-step for ionic-motion
   TEIN   =    0.0    initial temperature
   TEBEG  =    0.0;   TEEND  =   0.0 temperature during run
   SMASS  =  -3.00    Nose mass-parameter (am)
   estimated Nose-frequenzy (Omega)   =  0.10E-29 period in steps =****** mass=  -0.109E-26a.u.
   SCALEE = 1.0000    scale energy and forces
   NPACO  =    256;   APACO  = 16.0  distance and # of slots for P.C.
   PSTRESS=    0.0 pullay stress

  Mass of Ions in am
   POMASS =  52.00 72.61 78.96
  Ionic Valenz
   ZVAL   =   6.00  4.00  6.00
  Atomic Wigner-Seitz radii
   RWIGS  =  -1.00 -1.00 -1.00
  virtual crystal weights 
   VCA    =   1.00  1.00  1.00
   NELECT =      56.0000    total number of electrons
   NUPDOWN=      -1.0000    fix difference up-down

 DOS related values:
   EMIN   =  10.00;   EMAX   =-10.00  energy-range for DOS
   EFERMI =   0.00
   ISMEAR =    -5;   SIGMA  =   0.05  broadening in eV -4-tet -1-fermi 0-gaus

 Electronic relaxation 2 (details)
   IALGO  =     38    algorithm
   LDIAG  =      T    sub-space diagonalisation (order eigenvalues)
   LSUBROT=      F    optimize rotation matrix (better conditioning)
   TURBO    =      0    0=normal 1=particle mesh
   IRESTART =      0    0=no restart 2=restart with 2 vectors
   NREBOOT  =      0    no. of reboots
   NMIN     =      0    reboot dimension
   EREF     =   0.00    reference energy to select bands
   IMIX   =      4    mixing-type and parameters
     AMIX     =   0.40;   BMIX     =  1.00
     AMIX_MAG =   1.60;   BMIX_MAG =  1.00
     AMIN     =   0.01
     WC   =   100.;   INIMIX=   1;  MIXPRE=   1;  MAXMIX= -45

 Intra band minimization:
   WEIMIN = 0.0010     energy-eigenvalue tresh-hold
   EBREAK =  0.63E-06  absolut break condition
   DEPER  =   0.30     relativ break condition  

   TIME   =   0.40     timestep for ELM

  volume/ion in A,a.u.               =      96.88       653.80
  Fermi-wavevector in a.u.,A,eV,Ry     =   0.632976  1.196152  5.451299  0.400659
  Thomas-Fermi vector in A             =   1.696476

 Write flags
   LWAVE        =      F    write WAVECAR
   LDOWNSAMPLE  =      F    k-point downsampling of WAVECAR
   LCHARG       =      T    write CHGCAR
   LVTOT        =      F    write LOCPOT, total local potential
   LVHAR        =      F    write LOCPOT, Hartree potential only
   LELF         =      F    write electronic localiz. function (ELF)
   LORBIT       =     11    0 simple, 1 ext, 2 COOP (PROOUT), +10 PAW based schemes


 Dipole corrections
   LMONO  =      F    monopole corrections only (constant potential shift)
   LDIPOL =      F    correct potential (dipole corrections)
   IDIPOL =      0    1-x, 2-y, 3-z, 4-all directions 
   EPSILON=  1.0000000 bulk dielectric constant

 Exchange correlation treatment:
   GGA     =    BO    GGA type
   LEXCH   =    42    internal setting for exchange type
   VOSKOWN=      0    Vosko Wilk Nusair interpolation
   LHFCALC =     F    Hartree Fock is set to
   LHFONE  =     F    Hartree Fock one center treatment
   AEXX    =    0.0000 exact exchange contribution

 vdW DFT:
   LUSE_VDW   =     T    switch on vdW DFT
   Zab_VDW    =-.8491    correlation parameter
   PARAM1     =0.1833
   PARAM2     =0.2200
   PARAM3     =0.0000
   -- rVV10 --
   BPARAM     = 6.3000
   CPARAM     = 0.0093

 Linear response parameters
   LEPSILON=     F    determine dielectric tensor
   LRPA    =     F    only Hartree local field effects (RPA)
   LNABLA  =     F    use nabla operator in PAW spheres
   LVEL    =     F    velocity operator in full k-point grid
   LINTERFAST=   F  fast interpolation
   KINTER  =     0    interpolate to denser k-point grid
   CSHIFT  =0.1000    complex shift for real part using Kramers Kronig
   OMEGAMAX=  -1.0    maximum frequency
   DEG_THRESHOLD= 0.2000000E-02 threshold for treating states as degnerate
   RTIME   =   -0.100 relaxation time in fs
  (WPLASMAI=    0.000 imaginary part of plasma frequency in eV, 0.658/RTIME)
   DFIELD  = 0.0000000 0.0000000 0.0000000 field for delta impulse in time

 Orbital magnetization related:
   ORBITALMAG=     F  switch on orbital magnetization
   LCHIMAG   =     F  perturbation theory with respect to B field
   DQ        =  0.001000  dq finite difference perturbation B field
   LLRAUG    =     F  two centre corrections for induced B field



--------------------------------------------------------------------------------------------------------


 conjugate gradient relaxation of ions
   using selective dynamics as specified on POSCAR
 charge density and potential will be updated during run
 spin polarized calculation
 Variant of blocked Davidson
 Davidson routine will perform the subspace rotation
 perform sub-space diagonalisation
    after iterative eigenvector-optimisation
 modified Broyden-mixing scheme, WC =      100.0
 initial mixing is a Kerker type mixing with AMIX =  0.4000 and BMIX =      1.0000
 Hartree-type preconditioning will be used
 using additional bands           12
 real space projection scheme for non local part
 use partial core corrections
 calculate Harris-corrections to forces   (improved forces if not selfconsistent)
 use gradient corrections 
 use of overlap-Matrix (Vanderbilt PP)
 Fermi weights with tetrahedron method with Bloechl corrections


--------------------------------------------------------------------------------------------------------


  energy-cutoff  :      520.00
  volume of cell :      968.84
      direct lattice vectors                 reciprocal lattice vectors
     6.907777000 -0.000000000  0.000000000     0.144764372 -0.083579742  0.000000000
     3.453888000  5.982310000  0.000000000     0.000000000  0.167159509 -0.000000000
     0.000000000  0.000000000 23.444588000    -0.000000000  0.000000000  0.042653767

  length of vectors
     6.907777000  6.907776433 23.444588000     0.167159495  0.167159509  0.042653767



 k-points in units of 2pi/SCALE and weight: Kpoints from vasprun.xml                
   0.00000000  0.00000000  0.00000000       0.040
   0.02895287 -0.01671595  0.00000000       0.240
   0.05790575 -0.03343190  0.00000000       0.240
   0.05790575  0.00000000  0.00000000       0.240
  -0.05790575  0.06686380  0.00000000       0.240

 k-points in reciprocal lattice and weights: Kpoints from vasprun.xml                
   0.00000000  0.00000000  0.00000000       0.040
   0.20000000  0.00000000  0.00000000       0.240
   0.40000000  0.00000000  0.00000000       0.240
   0.40000000  0.20000000  0.00000000       0.240
  -0.40000000  0.20000000  0.00000000       0.240

 position of ions in fractional coordinates (direct lattice) 
   0.33333300  0.33333300  0.49992500
   0.66666700  0.66666700  0.50007500
   0.00000000  0.00000000  0.44821600
   0.00000000  0.00000000  0.55178400
   0.62635700  0.00042000  0.57375200
   0.00042000  0.37322400  0.57375200
   0.37322400  0.62635700  0.57375200
   0.37364300  0.99958000  0.42624800
   0.99958000  0.62677600  0.42624800
   0.62677600  0.37364300  0.42624800

 position of ions in cartesian coordinates  (Angst):
   3.45388488  1.99410134 11.72053566
   6.90778012  3.98820866 11.72405234
   0.00000000  0.00000000 10.50823946
   0.00000000  0.00000000 12.93634854
   4.32818511  0.00251257 13.45137925
   1.29197516  2.23274167 13.45137925
   4.74151509  3.74706174 13.45137925
   6.03347989  5.97979743  9.99320875
   9.06968984  3.74956833  9.99320875
   5.62014991  2.23524826  9.99320875



--------------------------------------------------------------------------------------------------------


 k-point  1 :   0.0000 0.0000 0.0000  plane waves:   26073
 k-point  2 :   0.2000 0.0000 0.0000  plane waves:   26070
 k-point  3 :   0.4000 0.0000 0.0000  plane waves:   26086
 k-point  4 :   0.4000 0.2000 0.0000  plane waves:   26085
 k-point  5 :  -0.4000 0.2000 0.0000  plane waves:   26115

 maximum and minimum number of plane-waves per node :     26115    26070

 maximum number of plane-waves:     26115
 maximum index in each direction: 
   IXMAX=   13   IYMAX=   12   IZMAX=   43
   IXMIN=  -13   IYMIN=  -13   IZMIN=  -43


 serial   3D FFT for wavefunctions
 parallel 3D FFT for charge:
    minimum data exchange during FFTs selected (reduces bandwidth)


 total amount of memory used by VASP MPI-rank0   169391. kBytes
=======================================================================

   base      :      30000. kBytes
   nonlr-proj:       7584. kBytes
   fftplans  :      20284. kBytes
   grid      :      90201. kBytes
   one-center:        311. kBytes
   wavefun   :      21011. kBytes

     INWAV:  cpu time    0.0000: real time    0.0005
 Broyden mixing: mesh for mixing (old mesh)
   NGX = 25   NGY = 25   NGZ = 87
  (NGX  =108   NGY  =108   NGZ  =360)
  gives a total of  54375 points

 initial charge density was supplied:
 charge density of overlapping atoms calculated
 number of electron      56.0000000 magnetization       6.0000000
 keeping initial charge density in first step


--------------------------------------------------------------------------------------------------------


 Maximum index for non-local projection operator         7247
 Maximum index for augmentation-charges         4076 (set IRDMAX)


--------------------------------------------------------------------------------------------------------


 First call to EWALD:  gamma=   0.179
 Maximum number of real-space cells 4x 4x 1
 Maximum number of reciprocal cells 2x 2x 6

    FEWALD:  cpu time    0.0000: real time    0.0014


--------------------------------------- Iteration      1(   1)  ---------------------------------------


vdW kernel read from vdw_kernel.bindat
  0.0000  0.2424  0.5071  0.7962  1.1119  1.4567  1.8333  2.2446  2.6937  3.1842
  3.7199  4.3049  4.9438  5.6415  6.4036  7.2358  8.1446  9.1372 10.2212 11.4050
 12.6979 14.1099 15.6519 17.3360 19.1751 21.1837 23.3773 25.7729 28.3892 31.2465
 34.3669 37.7748 41.4965 45.5611 50.0000

    POTLOK:  cpu time  102.0400: real time  103.1984
    SETDIJ:  cpu time    0.0680: real time    0.0693
     EDDAV:  cpu time   20.1360: real time   20.3330
 BZINTS: Fermi energy:  6.037881; 56.000000 electrons
         Band energy:  13.418434;  BLOECHL correction: -0.058181
       DOS:  cpu time    0.0040: real time    0.0040
    --------------------------------------------
      LOOP:  cpu time  122.2480: real time  123.6047

 eigenvalue-minimisations  :   800
 total energy-change (2. order) : 0.4309355E+03  (-0.1581241E+04)
 number of electron      56.0000000 magnetization       6.0000000
 augmentation part       56.0000000 magnetization       6.0000000

 Free energy of the ion-electron system (eV)
  ---------------------------------------------------
  alpha Z        PSCENC =        33.62852870
  Ewald energy   TEWEN  =      5985.89955237
  -Hartree energ DENC   =     -8013.07032120
  -exchange      EXHF   =         0.00000000
  -V(xc)+E(xc)   XCENC  =       -66.15624728
  PAW double counting   =      1170.58149788    -1011.64413051
  entropy T*S    EENTRO =         0.00000000
  eigenvalues    EBANDS =        13.41843402
  atomic energy  EATOM  =      2318.27820089
  Solvation  Ediel_sol  =         0.00000000
  ---------------------------------------------------
  free energy    TOTEN  =       430.93551489 eV

  energy without entropy =      430.93551489  energy(sigma->0) =      430.93551489


--------------------------------------------------------------------------------------------------------




--------------------------------------- Iteration      1(   2)  ---------------------------------------


     EDDAV:  cpu time   25.4440: real time   25.9257
 BZINTS: Fermi energy: -0.351135; 56.000000 electrons
         Band energy:-373.531071;  BLOECHL correction: -0.066898
       DOS:  cpu time    0.0040: real time    0.0041
    --------------------------------------------
      LOOP:  cpu time   25.4480: real time   25.9299

 eigenvalue-minimisations  :  1064
 total energy-change (2. order) :-0.3869495E+03  (-0.3695739E+03)
 number of electron      56.0000000 magnetization       6.0000000
 augmentation part       56.0000000 magnetization       6.0000000

 Free energy of the ion-electron system (eV)
  ---------------------------------------------------
  alpha Z        PSCENC =        33.62852870
  Ewald energy   TEWEN  =      5985.89955237
  -Hartree energ DENC   =     -8013.07032120
  -exchange      EXHF   =         0.00000000
  -V(xc)+E(xc)   XCENC  =       -66.15624728
  PAW double counting   =      1170.58149788    -1011.64413051
  entropy T*S    EENTRO =         0.00000000
  eigenvalues    EBANDS =      -373.53107111
  atomic energy  EATOM  =      2318.27820089
  Solvation  Ediel_sol  =         0.00000000
  ---------------------------------------------------
  free energy    TOTEN  =        43.98600976 eV

  energy without entropy =       43.98600976  energy(sigma->0) =       43.98600976


--------------------------------------------------------------------------------------------------------




--------------------------------------- Iteration      1(   3)  ---------------------------------------


     EDDAV:  cpu time   26.3600: real time   26.5738
 BZINTS: Fermi energy: -2.284979; 56.000000 electrons
         Band energy:-461.464895;  BLOECHL correction: -0.047564
       DOS:  cpu time    0.0040: real time    0.0041
    --------------------------------------------
      LOOP:  cpu time   26.3640: real time   26.5779

 eigenvalue-minimisations  :  1112
 total energy-change (2. order) :-0.8793382E+02  (-0.8563326E+02)
 number of electron      56.0000000 magnetization       6.0000000
 augmentation part       56.0000000 magnetization       6.0000000

 Free energy of the ion-electron system (eV)
  ---------------------------------------------------
  alpha Z        PSCENC =        33.62852870
  Ewald energy   TEWEN  =      5985.89955237
  -Hartree energ DENC   =     -8013.07032120
  -exchange      EXHF   =         0.00000000
  -V(xc)+E(xc)   XCENC  =       -66.15624728
  PAW double counting   =      1170.58149788    -1011.64413051
  entropy T*S    EENTRO =         0.00000000
  eigenvalues    EBANDS =      -461.46489502
  atomic energy  EATOM  =      2318.27820089
  Solvation  Ediel_sol  =         0.00000000
  ---------------------------------------------------
  free energy    TOTEN  =       -43.94781415 eV

  energy without entropy =      -43.94781415  energy(sigma->0) =      -43.94781415


--------------------------------------------------------------------------------------------------------




--------------------------------------- Iteration      1(   4)  ---------------------------------------


     EDDAV:  cpu time   28.0680: real time   28.2933
 BZINTS: Fermi energy: -2.402828; 56.000000 electrons
         Band energy:-468.769623;  BLOECHL correction: -0.009776
       DOS:  cpu time    0.0040: real time    0.0038
    --------------------------------------------
      LOOP:  cpu time   28.0720: real time   28.2971

 eigenvalue-minimisations  :  1184
 total energy-change (2. order) :-0.7304728E+01  (-0.6673109E+01)
 number of electron      56.0000000 magnetization       6.0000000
 augmentation part       56.0000000 magnetization       6.0000000

 Free energy of the ion-electron system (eV)
  ---------------------------------------------------
  alpha Z        PSCENC =        33.62852870
  Ewald energy   TEWEN  =      5985.89955237
  -Hartree energ DENC   =     -8013.07032120
  -exchange      EXHF   =         0.00000000
  -V(xc)+E(xc)   XCENC  =       -66.15624728
  PAW double counting   =      1170.58149788    -1011.64413051
  entropy T*S    EENTRO =         0.00000000
  eigenvalues    EBANDS =      -468.76962274
  atomic energy  EATOM  =      2318.27820089
  Solvation  Ediel_sol  =         0.00000000
  ---------------------------------------------------
  free energy    TOTEN  =       -51.25254188 eV

  energy without entropy =      -51.25254188  energy(sigma->0) =      -51.25254188


--------------------------------------------------------------------------------------------------------




--------------------------------------- Iteration      1(   5)  ---------------------------------------


     EDDAV:  cpu time   35.2040: real time   35.5301
 BZINTS: Fermi energy: -2.429026; 56.000000 electrons
         Band energy:-469.044862;  BLOECHL correction:  0.000000
       DOS:  cpu time    0.0000: real time    0.0017
    CHARGE:  cpu time    3.3520: real time    3.3645
    MIXING:  cpu time    0.0760: real time    0.0772
    --------------------------------------------
      LOOP:  cpu time   38.6320: real time   38.9736

 eigenvalue-minimisations  :  1136
 total energy-change (2. order) :-0.2752395E+00  (-0.2786168E+00)
 number of electron      55.9999996 magnetization       5.5711250
 augmentation part       -7.0031928 magnetization       5.1038454

 Broyden mixing:
  rms(total) = 0.25372E+01    rms(broyden)= 0.25372E+01
  rms(prec ) = 0.28425E+01
  weight for this iteration     100.00

 Free energy of the ion-electron system (eV)
  ---------------------------------------------------
  alpha Z        PSCENC =        33.62852870
  Ewald energy   TEWEN  =      5985.89955237
  -Hartree energ DENC   =     -8013.07032120
  -exchange      EXHF   =         0.00000000
  -V(xc)+E(xc)   XCENC  =       -66.15624728
  PAW double counting   =      1170.58149788    -1011.64413051
  entropy T*S    EENTRO =         0.00000000
  eigenvalues    EBANDS =      -469.04486220
  atomic energy  EATOM  =      2318.27820089
  Solvation  Ediel_sol  =         0.00000000
  ---------------------------------------------------
  free energy    TOTEN  =       -51.52778133 eV

  energy without entropy =      -51.52778133  energy(sigma->0) =      -51.52778133


--------------------------------------------------------------------------------------------------------




--------------------------------------- Iteration      1(   6)  ---------------------------------------


    POTLOK:  cpu time  100.9200: real time  101.2206
    SETDIJ:  cpu time    0.0640: real time    0.0611
     EDDAV:  cpu time   39.6360: real time   39.8420
 BZINTS: Fermi energy: -4.993797; 56.000000 electrons
         Band energy:-608.843273;  BLOECHL correction: -0.045341
       DOS:  cpu time    0.0040: real time    0.0068
    CHARGE:  cpu time    3.2480: real time    3.2675
    MIXING:  cpu time    0.0840: real time    0.0811
    --------------------------------------------
      LOOP:  cpu time  143.9560: real time  144.4789

 eigenvalue-minimisations  :  1136
 total energy-change (2. order) :-0.8146601E+02  (-0.5596730E+02)
 number of electron      55.9999993 magnetization       5.4419158
 augmentation part        7.6922254 magnetization       4.1144606

 Broyden mixing:
  rms(total) = 0.62729E+01    rms(broyden)= 0.62729E+01
  rms(prec ) = 0.70749E+01
  weight for this iteration     100.00

 eigenvalues of (default mixing * dielectric matrix)
  average eigenvalue GAMMA=   0.2846
  0.2846

 Free energy of the ion-electron system (eV)
  ---------------------------------------------------
  alpha Z        PSCENC =        33.62852870
  Ewald energy   TEWEN  =      5985.89955237
  -Hartree energ DENC   =     -7963.82772493
  -exchange      EXHF   =         0.00000000
  -V(xc)+E(xc)   XCENC  =       -66.66760782
  PAW double counting   =      1105.97874132     -937.44020563
  entropy T*S    EENTRO =         0.00000000
  eigenvalues    EBANDS =      -608.84327344
  atomic energy  EATOM  =      2318.27820089
  Solvation  Ediel_sol  =         0.00000000
  ---------------------------------------------------
  free energy    TOTEN  =      -132.99378853 eV

  energy without entropy =     -132.99378853  energy(sigma->0) =     -132.99378853


--------------------------------------------------------------------------------------------------------




--------------------------------------- Iteration      1(   7)  ---------------------------------------


    POTLOK:  cpu time  104.8520: real time  105.3804
    SETDIJ:  cpu time    0.0600: real time    0.0580
     EDDAV:  cpu time   25.5600: real time   25.7562
 BZINTS: Fermi energy: -4.012862; 56.000000 electrons
         Band energy:-468.811455;  BLOECHL correction:  0.000000
       DOS:  cpu time    0.0000: real time    0.0018
    CHARGE:  cpu time    2.4680: real time    2.4781
    MIXING:  cpu time    0.0720: real time    0.0729
    --------------------------------------------
      LOOP:  cpu time  133.0120: real time  133.7474

 eigenvalue-minimisations  :  1056
 total energy-change (2. order) : 0.9092912E+02  (-0.1163084E+02)
 number of electron      55.9999995 magnetization       5.4638605
 augmentation part       -2.3499638 magnetization       3.0653796

 Broyden mixing:
  rms(total) = 0.18198E+01    rms(broyden)= 0.18197E+01
  rms(prec ) = 0.18319E+01
  weight for this iteration     100.00

 eigenvalues of (default mixing * dielectric matrix)
  average eigenvalue GAMMA=   0.2871
  0.2871  0.2871

 Free energy of the ion-electron system (eV)
  ---------------------------------------------------
  alpha Z        PSCENC =        33.62852870
  Ewald energy   TEWEN  =      5985.89955237
  -Hartree energ DENC   =     -8002.83167385
  -exchange      EXHF   =         0.00000000
  -V(xc)+E(xc)   XCENC  =       -66.94730077
  PAW double counting   =      1177.93291495    -1019.21343328
  entropy T*S    EENTRO =         0.00000000
  eigenvalues    EBANDS =      -468.81145466
  atomic energy  EATOM  =      2318.27820089
  Solvation  Ediel_sol  =         0.00000000
  ---------------------------------------------------
  free energy    TOTEN  =       -42.06466564 eV

  energy without entropy =      -42.06466564  energy(sigma->0) =      -42.06466564


--------------------------------------------------------------------------------------------------------




--------------------------------------- Iteration      1(   8)  ---------------------------------------


    POTLOK:  cpu time   98.2560: real time   98.8636
    SETDIJ:  cpu time    0.0720: real time    0.0709
     EDDAV:  cpu time   28.3920: real time   28.5912
 BZINTS: Fermi energy: -4.196391; 56.000000 electrons
         Band energy:-471.366026;  BLOECHL correction:  0.000000
       DOS:  cpu time    0.0000: real time    0.0021
    CHARGE:  cpu time    2.0640: real time    2.0622
    MIXING:  cpu time    0.0480: real time    0.0492
    --------------------------------------------
      LOOP:  cpu time  128.8320: real time  129.6393

 eigenvalue-minimisations  :   928
 total energy-change (2. order) :-0.2236909E+01  (-0.8486234E+00)
 number of electron      55.9999995 magnetization       5.5067675
 augmentation part       -2.5882067 magnetization       3.3032545

 Broyden mixing:
  rms(total) = 0.11535E+01    rms(broyden)= 0.11534E+01
  rms(prec ) = 0.11660E+01
  weight for this iteration     100.00

 eigenvalues of (default mixing * dielectric matrix)
  average eigenvalue GAMMA=   0.4871
  0.5876  0.5876  0.2862

 Free energy of the ion-electron system (eV)
  ---------------------------------------------------
  alpha Z        PSCENC =        33.62852870
  Ewald energy   TEWEN  =      5985.89955237
  -Hartree energ DENC   =     -8003.11130354
  -exchange      EXHF   =         0.00000000
  -V(xc)+E(xc)   XCENC  =       -66.43493967
  PAW double counting   =      1179.89531519    -1021.09090345
  entropy T*S    EENTRO =         0.00000000
  eigenvalues    EBANDS =      -471.36602557
  atomic energy  EATOM  =      2318.27820089
  Solvation  Ediel_sol  =         0.00000000
  ---------------------------------------------------
  free energy    TOTEN  =       -44.30157508 eV

  energy without entropy =      -44.30157508  energy(sigma->0) =      -44.30157508


--------------------------------------------------------------------------------------------------------




--------------------------------------- Iteration      1(   9)  ---------------------------------------


    POTLOK:  cpu time   99.6520: real time  100.1830
    SETDIJ:  cpu time    0.0960: real time    0.0946
     EDDAV:  cpu time   37.3120: real time   37.8477
 BZINTS: Fermi energy: -4.230318; 56.000000 electrons
         Band energy:-468.513646;  BLOECHL correction:  0.000000
       DOS:  cpu time    0.0000: real time    0.0021
    CHARGE:  cpu time    2.0920: real time    2.0914
    MIXING:  cpu time    0.0480: real time    0.0497
    --------------------------------------------
      LOOP:  cpu time  139.2000: real time  140.2684

 eigenvalue-minimisations  :  1240
 total energy-change (2. order) :-0.7225949E+00  (-0.6616838E-01)
 number of electron      55.9999995 magnetization       5.5791275
 augmentation part       -2.6924828 magnetization       3.7079857

 Broyden mixing:
  rms(total) = 0.73977E+00    rms(broyden)= 0.73977E+00
  rms(prec ) = 0.74627E+00
  weight for this iteration     100.00

 eigenvalues of (default mixing * dielectric matrix)
  average eigenvalue GAMMA=   0.6755
  0.9522  0.9522  0.2872  0.5102

 Free energy of the ion-electron system (eV)
  ---------------------------------------------------
  alpha Z        PSCENC =        33.62852870
  Ewald energy   TEWEN  =      5985.89955237
  -Hartree energ DENC   =     -8007.69758038
  -exchange      EXHF   =         0.00000000
  -V(xc)+E(xc)   XCENC  =       -65.22021126
  PAW double counting   =      1191.57706601    -1032.97608013
  entropy T*S    EENTRO =         0.00000000
  eigenvalues    EBANDS =      -468.51364615
  atomic energy  EATOM  =      2318.27820089
  Solvation  Ediel_sol  =         0.00000000
  ---------------------------------------------------
  free energy    TOTEN  =       -45.02416994 eV

  energy without entropy =      -45.02416994  energy(sigma->0) =      -45.02416994


--------------------------------------------------------------------------------------------------------




--------------------------------------- Iteration      1(  10)  ---------------------------------------


    POTLOK:  cpu time  100.4080: real time  100.8367
    SETDIJ:  cpu time    0.1280: real time    0.1350
     EDDAV:  cpu time   36.3600: real time   36.7777
 BZINTS: Fermi energy: -4.141215; 56.000000 electrons
         Band energy:-466.579377;  BLOECHL correction:  0.000000
       DOS:  cpu time    0.0000: real time    0.0022
    CHARGE:  cpu time    2.0080: real time    2.0104
    MIXING:  cpu time    0.0760: real time    0.0741
    --------------------------------------------
      LOOP:  cpu time  138.9800: real time  139.8362

 eigenvalue-minimisations  :  1224
 total energy-change (2. order) :-0.2692800E+00  (-0.2873845E-01)
 number of electron      55.9999995 magnetization       5.6467679
 augmentation part       -2.6876282 magnetization       4.0796428

 Broyden mixing:
  rms(total) = 0.28978E+00    rms(broyden)= 0.28978E+00
  rms(prec ) = 0.29486E+00
  weight for this iteration     100.00

 eigenvalues of (default mixing * dielectric matrix)
  average eigenvalue GAMMA=   0.8439
  1.3213  1.3213  0.2868  0.6451  0.6451

 Free energy of the ion-electron system (eV)
  ---------------------------------------------------
  alpha Z        PSCENC =        33.62852870
  Ewald energy   TEWEN  =      5985.89955237
  -Hartree energ DENC   =     -8011.12475769
  -exchange      EXHF   =         0.00000000
  -V(xc)+E(xc)   XCENC  =       -63.45568090
  PAW double counting   =      1198.88361205    -1040.82352808
  entropy T*S    EENTRO =         0.00000000
  eigenvalues    EBANDS =      -466.57937725
  atomic energy  EATOM  =      2318.27820089
  Solvation  Ediel_sol  =         0.00000000
  ---------------------------------------------------
  free energy    TOTEN  =       -45.29344990 eV

  energy without entropy =      -45.29344990  energy(sigma->0) =      -45.29344990


--------------------------------------------------------------------------------------------------------




--------------------------------------- Iteration      1(  11)  ---------------------------------------


    POTLOK:  cpu time  101.0120: real time  101.7454
    SETDIJ:  cpu time    0.0920: real time    0.0929
     EDDAV:  cpu time   38.0440: real time   38.5830
 BZINTS: Fermi energy: -4.131630; 56.000000 electrons
         Band energy:-465.936808;  BLOECHL correction:  0.000000
       DOS:  cpu time    0.0000: real time    0.0024
    CHARGE:  cpu time    2.0400: real time    2.0404
    MIXING:  cpu time    0.0520: real time    0.0520
    --------------------------------------------
      LOOP:  cpu time  141.2400: real time  142.5159

 eigenvalue-minimisations  :  1240
 total energy-change (2. order) :-0.7184866E-01  (-0.9792501E-02)
 number of electron      55.9999995 magnetization       5.7158875
 augmentation part       -2.7561365 magnetization       4.2862846

 Broyden mixing:
  rms(total) = 0.87461E-01    rms(broyden)= 0.87460E-01
  rms(prec ) = 0.89810E-01
  weight for this iteration     100.00

 eigenvalues of (default mixing * dielectric matrix)
  average eigenvalue GAMMA=   0.9658
  1.6260  1.6260  0.2868  0.8869  0.6847  0.6847

 Free energy of the ion-electron system (eV)
  ---------------------------------------------------
  alpha Z        PSCENC =        33.62852870
  Ewald energy   TEWEN  =      5985.89955237
  -Hartree energ DENC   =     -8012.69844907
  -exchange      EXHF   =         0.00000000
  -V(xc)+E(xc)   XCENC  =       -62.34649472
  PAW double counting   =      1202.26902415    -1044.45885257
  entropy T*S    EENTRO =         0.00000000
  eigenvalues    EBANDS =      -465.93680832
  atomic energy  EATOM  =      2318.27820089
  Solvation  Ediel_sol  =         0.00000000
  ---------------------------------------------------
  free energy    TOTEN  =       -45.36529856 eV

  energy without entropy =      -45.36529856  energy(sigma->0) =      -45.36529856


--------------------------------------------------------------------------------------------------------




--------------------------------------- Iteration      1(  12)  ---------------------------------------


    POTLOK:  cpu time  101.3080: real time  101.5421
    SETDIJ:  cpu time    0.0920: real time    0.0918
     EDDAV:  cpu time   32.0480: real time   32.2892
 BZINTS: Fermi energy: -4.132949; 56.000000 electrons
         Band energy:-465.576982;  BLOECHL correction:  0.000000
       DOS:  cpu time    0.0000: real time    0.0026
    CHARGE:  cpu time    2.0520: real time    2.0524
    MIXING:  cpu time    0.0520: real time    0.0528
    --------------------------------------------
      LOOP:  cpu time  135.5520: real time  136.0308

 eigenvalue-minimisations  :  1128
 total energy-change (2. order) :-0.1345709E-02  (-0.2104087E-02)
 number of electron      55.9999995 magnetization       5.7661871
 augmentation part       -2.8042258 magnetization       4.3393854

 Broyden mixing:
  rms(total) = 0.31879E-01    rms(broyden)= 0.31879E-01
  rms(prec ) = 0.33303E-01
  weight for this iteration     100.00

 eigenvalues of (default mixing * dielectric matrix)
  average eigenvalue GAMMA=   1.0576
  2.4437  1.3215  1.3215  0.2868  0.7143  0.7143  0.6012

 Free energy of the ion-electron system (eV)
  ---------------------------------------------------
  alpha Z        PSCENC =        33.62852870
  Ewald energy   TEWEN  =      5985.89955237
  -Hartree energ DENC   =     -8013.13318283
  -exchange      EXHF   =         0.00000000
  -V(xc)+E(xc)   XCENC  =       -62.05320041
  PAW double counting   =      1202.26677311    -1044.67633437
  entropy T*S    EENTRO =         0.00000000
  eigenvalues    EBANDS =      -465.57698173
  atomic energy  EATOM  =      2318.27820089
  Solvation  Ediel_sol  =         0.00000000
  ---------------------------------------------------
  free energy    TOTEN  =       -45.36664427 eV

  energy without entropy =      -45.36664427  energy(sigma->0) =      -45.36664427


--------------------------------------------------------------------------------------------------------




--------------------------------------- Iteration      1(  13)  ---------------------------------------


    POTLOK:  cpu time  102.3680: real time  102.8569
    SETDIJ:  cpu time    0.0920: real time    0.0922
     EDDAV:  cpu time   40.8000: real time   41.2086
 BZINTS: Fermi energy: -4.080542; 56.000000 electrons
         Band energy:-465.188740;  BLOECHL correction:  0.000000
       DOS:  cpu time    0.0000: real time    0.0032
    CHARGE:  cpu time    3.2560: real time    3.2811
    MIXING:  cpu time    0.0960: real time    0.0927
    --------------------------------------------
      LOOP:  cpu time  146.6120: real time  147.5349

 eigenvalue-minimisations  :  1008
 total energy-change (2. order) :-0.1226094E-02  (-0.5613551E-03)
 number of electron      55.9999995 magnetization       5.8004317
 augmentation part       -2.8047448 magnetization       4.3785633

 Broyden mixing:
  rms(total) = 0.23870E-01    rms(broyden)= 0.23870E-01
  rms(prec ) = 0.24643E-01
  weight for this iteration     100.00

 eigenvalues of (default mixing * dielectric matrix)
  average eigenvalue GAMMA=   1.0798
  2.4215  1.6422  0.2868  1.1307  1.1307  0.7120  0.7120  0.6025

 Free energy of the ion-electron system (eV)
  ---------------------------------------------------
  alpha Z        PSCENC =        33.62852870
  Ewald energy   TEWEN  =      5985.89955237
  -Hartree energ DENC   =     -8013.56784989
  -exchange      EXHF   =         0.00000000
  -V(xc)+E(xc)   XCENC  =       -62.01593528
  PAW double counting   =      1202.77769337    -1045.17932025
  entropy T*S    EENTRO =         0.00000000
  eigenvalues    EBANDS =      -465.18874028
  atomic energy  EATOM  =      2318.27820089
  Solvation  Ediel_sol  =         0.00000000
  ---------------------------------------------------
  free energy    TOTEN  =       -45.36787036 eV

  energy without entropy =      -45.36787036  energy(sigma->0) =      -45.36787036


--------------------------------------------------------------------------------------------------------




--------------------------------------- Iteration      1(  14)  ---------------------------------------


    POTLOK:  cpu time   98.5520: real time   98.9508
    SETDIJ:  cpu time    0.0720: real time    0.0728
     EDDAV:  cpu time   24.8640: real time   25.0743
 BZINTS: Fermi energy: -4.117630; 56.000000 electrons
         Band energy:-464.934592;  BLOECHL correction:  0.000000
       DOS:  cpu time    0.0000: real time    0.0019
    CHARGE:  cpu time    1.9680: real time    1.9798
    MIXING:  cpu time    0.0720: real time    0.0740
    --------------------------------------------
      LOOP:  cpu time  125.5280: real time  126.1537

 eigenvalue-minimisations  :  1024
 total energy-change (2. order) :-0.2351144E-02  (-0.2612930E-03)
 number of electron      55.9999995 magnetization       5.8377893
 augmentation part       -2.7878234 magnetization       4.4144633

 Broyden mixing:
  rms(total) = 0.35924E-01    rms(broyden)= 0.35924E-01
  rms(prec ) = 0.36426E-01
  weight for this iteration     100.00

 eigenvalues of (default mixing * dielectric matrix)
  average eigenvalue GAMMA=   1.1479
  2.3768  2.3768  1.2594  1.2594  0.2868  0.7692  0.7692  0.6166  0.6166

 Free energy of the ion-electron system (eV)
  ---------------------------------------------------
  alpha Z        PSCENC =        33.62852870
  Ewald energy   TEWEN  =      5985.89955237
  -Hartree energ DENC   =     -8013.76855459
  -exchange      EXHF   =         0.00000000
  -V(xc)+E(xc)   XCENC  =       -62.08544486
  PAW double counting   =      1202.40248844    -1044.79040012
  entropy T*S    EENTRO =         0.00000000
  eigenvalues    EBANDS =      -464.93459233
  atomic energy  EATOM  =      2318.27820089
  Solvation  Ediel_sol  =         0.00000000
  ---------------------------------------------------
  free energy    TOTEN  =       -45.37022151 eV

  energy without entropy =      -45.37022151  energy(sigma->0) =      -45.37022151


--------------------------------------------------------------------------------------------------------




--------------------------------------- Iteration      1(  15)  ---------------------------------------


    POTLOK:  cpu time   96.9960: real time   97.5468
    SETDIJ:  cpu time    0.0560: real time    0.0596
     EDDAV:  cpu time   23.0600: real time   23.1749
 BZINTS: Fermi energy: -4.109497; 56.000000 electrons
         Band energy:-464.547879;  BLOECHL correction:  0.000000
       DOS:  cpu time    0.0000: real time    0.0019
    CHARGE:  cpu time    2.0520: real time    2.0505
    MIXING:  cpu time    0.0560: real time    0.0570
    --------------------------------------------
      LOOP:  cpu time  122.2200: real time  122.8907

 eigenvalue-minimisations  :   944
 total energy-change (2. order) :-0.3375724E-02  (-0.1001681E-03)
 number of electron      55.9999995 magnetization       5.9124183
 augmentation part       -2.7775398 magnetization       4.5003011

 Broyden mixing:
  rms(total) = 0.28155E-01    rms(broyden)= 0.28155E-01
  rms(prec ) = 0.29051E-01
  weight for this iteration     100.00

 eigenvalues of (default mixing * dielectric matrix)
  average eigenvalue GAMMA=   1.2714
  2.9547  2.9547  1.4155  1.4155  0.2868  0.8648  0.8648  0.6753  0.6753  0.6071

 Free energy of the ion-electron system (eV)
  ---------------------------------------------------
  alpha Z        PSCENC =        33.62852870
  Ewald energy   TEWEN  =      5985.89955237
  -Hartree energ DENC   =     -8014.21043464
  -exchange      EXHF   =         0.00000000
  -V(xc)+E(xc)   XCENC  =       -62.04104854
  PAW double counting   =      1202.37437700    -1044.75489354
  entropy T*S    EENTRO =         0.00000000
  eigenvalues    EBANDS =      -464.54787948
  atomic energy  EATOM  =      2318.27820089
  Solvation  Ediel_sol  =         0.00000000
  ---------------------------------------------------
  free energy    TOTEN  =       -45.37359723 eV

  energy without entropy =      -45.37359723  energy(sigma->0) =      -45.37359723


--------------------------------------------------------------------------------------------------------




--------------------------------------- Iteration      1(  16)  ---------------------------------------


    POTLOK:  cpu time  104.7520: real time  105.0863
    SETDIJ:  cpu time    0.0640: real time    0.0646
     EDDAV:  cpu time   22.8440: real time   22.8729
 BZINTS: Fermi energy: -4.056100; 56.000000 electrons
         Band energy:-463.776835;  BLOECHL correction:  0.000000
       DOS:  cpu time    0.0000: real time    0.0025
    CHARGE:  cpu time    2.0160: real time    2.0316
    MIXING:  cpu time    0.0680: real time    0.0662
    --------------------------------------------
      LOOP:  cpu time  129.7440: real time  130.1241

 eigenvalue-minimisations  :   928
 total energy-change (2. order) : 0.8813063E-02  (-0.9230050E-04)
 number of electron      55.9999995 magnetization       5.9552911
 augmentation part       -2.7812251 magnetization       4.5476600

 Broyden mixing:
  rms(total) = 0.12240E-01    rms(broyden)= 0.12240E-01
  rms(prec ) = 0.13193E-01
  weight for this iteration     100.00

 eigenvalues of (default mixing * dielectric matrix)
  average eigenvalue GAMMA=   1.3810
  4.5788  2.7318  1.4694  1.4694  0.2868  0.9771  0.9771  0.7261  0.7261  0.6245
  0.6245

 Free energy of the ion-electron system (eV)
  ---------------------------------------------------
  alpha Z        PSCENC =        33.62852870
  Ewald energy   TEWEN  =      5985.89955237
  -Hartree energ DENC   =     -8015.04668317
  -exchange      EXHF   =         0.00000000
  -V(xc)+E(xc)   XCENC  =       -61.94827032
  PAW double counting   =      1202.37628369    -1044.77556150
  entropy T*S    EENTRO =         0.00000000
  eigenvalues    EBANDS =      -463.77683485
  atomic energy  EATOM  =      2318.27820089
  Solvation  Ediel_sol  =         0.00000000
  ---------------------------------------------------
  free energy    TOTEN  =       -45.36478417 eV

  energy without entropy =      -45.36478417  energy(sigma->0) =      -45.36478417


--------------------------------------------------------------------------------------------------------




--------------------------------------- Iteration      1(  17)  ---------------------------------------


    POTLOK:  cpu time  103.4720: real time  104.0709
    SETDIJ:  cpu time    0.0640: real time    0.0667
     EDDAV:  cpu time   21.4880: real time   21.9734
 BZINTS: Fermi energy: -4.082144; 56.000000 electrons
         Band energy:-463.323088;  BLOECHL correction:  0.000000
       DOS:  cpu time    0.0000: real time    0.0020
    CHARGE:  cpu time    2.0320: real time    2.0417
    MIXING:  cpu time    0.0600: real time    0.0585
    --------------------------------------------
      LOOP:  cpu time  127.1160: real time  128.2131

 eigenvalue-minimisations  :   856
 total energy-change (2. order) :-0.3358046E-03  (-0.7745495E-04)
 number of electron      55.9999995 magnetization       5.9905205
 augmentation part       -2.7882496 magnetization       4.5822802

 Broyden mixing:
  rms(total) = 0.60419E-02    rms(broyden)= 0.60419E-02
  rms(prec ) = 0.67279E-02
  weight for this iteration     100.00

 eigenvalues of (default mixing * dielectric matrix)
  average eigenvalue GAMMA=   1.5355
  6.7151  2.5777  1.4770  1.4770  0.2868  1.1367  1.1367  0.8171  0.8171  0.6118
  0.6866  0.6866

 Free energy of the ion-electron system (eV)
  ---------------------------------------------------
  alpha Z        PSCENC =        33.62852870
  Ewald energy   TEWEN  =      5985.89955237
  -Hartree energ DENC   =     -8015.52240738
  -exchange      EXHF   =         0.00000000
  -V(xc)+E(xc)   XCENC  =       -61.92432355
  PAW double counting   =      1202.44218990    -1044.84377326
  entropy T*S    EENTRO =         0.00000000
  eigenvalues    EBANDS =      -463.32308765
  atomic energy  EATOM  =      2318.27820089
  Solvation  Ediel_sol  =         0.00000000
  ---------------------------------------------------
  free energy    TOTEN  =       -45.36511997 eV

  energy without entropy =      -45.36511997  energy(sigma->0) =      -45.36511997


--------------------------------------------------------------------------------------------------------




--------------------------------------- Iteration      1(  18)  ---------------------------------------


    POTLOK:  cpu time  103.5280: real time  105.1545
    SETDIJ:  cpu time    0.0720: real time    0.0721
     EDDAV:  cpu time   19.9680: real time   20.1090
 BZINTS: Fermi energy: -4.056915; 56.000000 electrons
         Band energy:-462.905958;  BLOECHL correction:  0.000000
       DOS:  cpu time    0.0000: real time    0.0019
    CHARGE:  cpu time    2.0200: real time    2.0265
    MIXING:  cpu time    0.0720: real time    0.0723
    --------------------------------------------
      LOOP:  cpu time  125.6600: real time  127.4365

 eigenvalue-minimisations  :   784
 total energy-change (2. order) :-0.4226876E-02  (-0.5607410E-04)
 number of electron      55.9999995 magnetization       6.0033121
 augmentation part       -2.7913556 magnetization       4.5959999

 Broyden mixing:
  rms(total) = 0.20338E-02    rms(broyden)= 0.20338E-02
  rms(prec ) = 0.30921E-02
  weight for this iteration     100.00

 eigenvalues of (default mixing * dielectric matrix)
  average eigenvalue GAMMA=   1.7238
  8.8616  2.6238  2.1837  1.4656  1.4656  0.2868  1.0159  1.0159  0.7734  0.7734
  0.6088  0.6671  0.6671

 Free energy of the ion-electron system (eV)
  ---------------------------------------------------
  alpha Z        PSCENC =        33.62852870
  Ewald energy   TEWEN  =      5985.89955237
  -Hartree energ DENC   =     -8015.96341999
  -exchange      EXHF   =         0.00000000
  -V(xc)+E(xc)   XCENC  =       -61.90245896
  PAW double counting   =      1202.50893338    -1044.91272530
  entropy T*S    EENTRO =         0.00000000
  eigenvalues    EBANDS =      -462.90595794
  atomic energy  EATOM  =      2318.27820089
  Solvation  Ediel_sol  =         0.00000000
  ---------------------------------------------------
  free energy    TOTEN  =       -45.36934685 eV

  energy without entropy =      -45.36934685  energy(sigma->0) =      -45.36934685


--------------------------------------------------------------------------------------------------------




--------------------------------------- Iteration      1(  19)  ---------------------------------------


    POTLOK:  cpu time  104.7560: real time  105.6468
    SETDIJ:  cpu time    0.0720: real time    0.0719
     EDDAV:  cpu time   19.5480: real time   19.8008
 BZINTS: Fermi energy: -4.038903; 56.000000 electrons
         Band energy:-462.678434;  BLOECHL correction:  0.000000
       DOS:  cpu time    0.0040: real time    0.0023
    CHARGE:  cpu time    2.0360: real time    2.0529
    MIXING:  cpu time    0.0640: real time    0.0621
    --------------------------------------------
      LOOP:  cpu time  126.4800: real time  127.6368

 eigenvalue-minimisations  :   752
 total energy-change (2. order) :-0.1945785E-02  (-0.1599932E-04)
 number of electron      55.9999995 magnetization       6.0037387
 augmentation part       -2.7905822 magnetization       4.5973686

 Broyden mixing:
  rms(total) = 0.18360E-02    rms(broyden)= 0.18360E-02
  rms(prec ) = 0.27977E-02
  weight for this iteration     100.00

 eigenvalues of (default mixing * dielectric matrix)
  average eigenvalue GAMMA=   1.7179
  9.2840  2.7328  2.3374  1.4898  1.4898  0.2868  1.0803  1.0803  0.8260  0.8260
  0.6918  0.6918  0.6170  0.6170

 Free energy of the ion-electron system (eV)
  ---------------------------------------------------
  alpha Z        PSCENC =        33.62852870
  Ewald energy   TEWEN  =      5985.89955237
  -Hartree energ DENC   =     -8016.19740053
  -exchange      EXHF   =         0.00000000
  -V(xc)+E(xc)   XCENC  =       -61.89830245
  PAW double counting   =      1202.56999158    -1044.97342876
  entropy T*S    EENTRO =         0.00000000
  eigenvalues    EBANDS =      -462.67843444
  atomic energy  EATOM  =      2318.27820089
  Solvation  Ediel_sol  =         0.00000000
  ---------------------------------------------------
  free energy    TOTEN  =       -45.37129263 eV

  energy without entropy =      -45.37129263  energy(sigma->0) =      -45.37129263


--------------------------------------------------------------------------------------------------------




--------------------------------------- Iteration      1(  20)  ---------------------------------------


    POTLOK:  cpu time  103.4120: real time  104.1371
    SETDIJ:  cpu time    0.1160: real time    0.1136
     EDDAV:  cpu time   29.5240: real time   29.8706
 BZINTS: Fermi energy: -4.043437; 56.000000 electrons
         Band energy:-462.580375;  BLOECHL correction:  0.000000
       DOS:  cpu time    0.0000: real time    0.0025
    CHARGE:  cpu time    3.2920: real time    3.3050
    MIXING:  cpu time    0.1600: real time    0.1583
    --------------------------------------------
      LOOP:  cpu time  136.5040: real time  137.5873

 eigenvalue-minimisations  :   616
 total energy-change (2. order) :-0.1008328E-03  (-0.2700248E-05)
 number of electron      55.9999995 magnetization       6.0019453
 augmentation part       -2.7904904 magnetization       4.5954570

 Broyden mixing:
  rms(total) = 0.11915E-02    rms(broyden)= 0.11915E-02
  rms(prec ) = 0.23412E-02
  weight for this iteration     100.00

 eigenvalues of (default mixing * dielectric matrix)
  average eigenvalue GAMMA=   1.6760
  9.2663  2.7946  2.3600  1.4822  1.4822  0.2868  1.1751  1.1751  0.8909  0.8909
  0.7295  0.7295  0.6378  0.6378  0.6020

 Free energy of the ion-electron system (eV)
  ---------------------------------------------------
  alpha Z        PSCENC =        33.62852870
  Ewald energy   TEWEN  =      5985.89955237
  -Hartree energ DENC   =     -8016.29265312
  -exchange      EXHF   =         0.00000000
  -V(xc)+E(xc)   XCENC  =       -61.90087790
  PAW double counting   =      1202.60151228    -1045.00528142
  entropy T*S    EENTRO =         0.00000000
  eigenvalues    EBANDS =      -462.58037527
  atomic energy  EATOM  =      2318.27820089
  Solvation  Ediel_sol  =         0.00000000
  ---------------------------------------------------
  free energy    TOTEN  =       -45.37139347 eV

  energy without entropy =      -45.37139347  energy(sigma->0) =      -45.37139347


--------------------------------------------------------------------------------------------------------




--------------------------------------- Iteration      1(  21)  ---------------------------------------


    POTLOK:  cpu time  100.4360: real time  101.1424
    SETDIJ:  cpu time    0.0600: real time    0.0601
     EDDAV:  cpu time   22.2280: real time   22.4244
 BZINTS: Fermi energy: -4.051046; 56.000000 electrons
         Band energy:-462.367319;  BLOECHL correction:  0.000000
       DOS:  cpu time    0.0000: real time    0.0019
    CHARGE:  cpu time    2.0160: real time    2.0284
    MIXING:  cpu time    0.0720: real time    0.0716
    --------------------------------------------
      LOOP:  cpu time  124.8120: real time  125.7288

 eigenvalue-minimisations  :   680
 total energy-change (2. order) :-0.3845663E-03  (-0.8200244E-05)
 number of electron      55.9999995 magnetization       6.0014014
 augmentation part       -2.7907268 magnetization       4.5940086

 Broyden mixing:
  rms(total) = 0.65491E-03    rms(broyden)= 0.65491E-03
  rms(prec ) = 0.19239E-02
  weight for this iteration     100.00

 eigenvalues of (default mixing * dielectric matrix)
  average eigenvalue GAMMA=   1.6887
  9.2285  2.9832  2.3076  2.1251  1.4667  1.4667  0.2868  1.0706  1.0706  0.8500
  0.8500  0.7170  0.7170  0.6046  0.6371  0.6371

 Free energy of the ion-electron system (eV)
  ---------------------------------------------------
  alpha Z        PSCENC =        33.62852870
  Ewald energy   TEWEN  =      5985.89955237
  -Hartree energ DENC   =     -8016.49883478
  -exchange      EXHF   =         0.00000000
  -V(xc)+E(xc)   XCENC  =       -61.90665562
  PAW double counting   =      1202.62038085    -1045.02563128
  entropy T*S    EENTRO =         0.00000000
  eigenvalues    EBANDS =      -462.36731916
  atomic energy  EATOM  =      2318.27820089
  Solvation  Ediel_sol  =         0.00000000
  ---------------------------------------------------
  free energy    TOTEN  =       -45.37177803 eV

  energy without entropy =      -45.37177803  energy(sigma->0) =      -45.37177803


--------------------------------------------------------------------------------------------------------




--------------------------------------- Iteration      1(  22)  ---------------------------------------


    POTLOK:  cpu time   95.1960: real time   97.5560
    SETDIJ:  cpu time    0.0720: real time    0.0694
     EDDAV:  cpu time   22.5400: real time   22.6762
 BZINTS: Fermi energy: -4.046222; 56.000000 electrons
         Band energy:-461.894724;  BLOECHL correction:  0.000000
       DOS:  cpu time    0.0000: real time    0.0019
    CHARGE:  cpu time    2.0160: real time    2.0169
    MIXING:  cpu time    0.0800: real time    0.0788
    --------------------------------------------
      LOOP:  cpu time  119.9040: real time  122.3993

 eigenvalue-minimisations  :   704
 total energy-change (2. order) :-0.1592147E-03  (-0.1106512E-04)
 number of electron      55.9999995 magnetization       6.0039563
 augmentation part       -2.7903522 magnetization       4.5966772

 Broyden mixing:
  rms(total) = 0.85866E-03    rms(broyden)= 0.85866E-03
  rms(prec ) = 0.16553E-02
  weight for this iteration     100.00

 eigenvalues of (default mixing * dielectric matrix)
  average eigenvalue GAMMA=   1.6920
  9.2495  3.1905  2.5149  2.3301  1.4780  1.4780  0.2868  1.1411  1.1411  0.9196
  0.9196  0.7633  0.7633  0.6770  0.6770  0.6138  0.6199

 Free energy of the ion-electron system (eV)
  ---------------------------------------------------
  alpha Z        PSCENC =        33.62852870
  Ewald energy   TEWEN  =      5985.89955237
  -Hartree energ DENC   =     -8016.97153866
  -exchange      EXHF   =         0.00000000
  -V(xc)+E(xc)   XCENC  =       -61.90609643
  PAW double counting   =      1202.63796870    -1045.04382893
  entropy T*S    EENTRO =         0.00000000
  eigenvalues    EBANDS =      -461.89472390
  atomic energy  EATOM  =      2318.27820089
  Solvation  Ediel_sol  =         0.00000000
  ---------------------------------------------------
  free energy    TOTEN  =       -45.37193725 eV

  energy without entropy =      -45.37193725  energy(sigma->0) =      -45.37193725


--------------------------------------------------------------------------------------------------------




--------------------------------------- Iteration      1(  23)  ---------------------------------------


    POTLOK:  cpu time   97.8880: real time   98.5649
    SETDIJ:  cpu time    0.1120: real time    0.1139
     EDDAV:  cpu time   31.0840: real time   31.3571
 BZINTS: Fermi energy: -4.025411; 56.000000 electrons
         Band energy:-461.179255;  BLOECHL correction:  0.000000
       DOS:  cpu time    0.0000: real time    0.0023
    CHARGE:  cpu time    2.8960: real time    2.9000
    MIXING:  cpu time    0.0720: real time    0.0692
    --------------------------------------------
      LOOP:  cpu time  132.0520: real time  133.0073

 eigenvalue-minimisations  :   680
 total energy-change (2. order) : 0.2165294E-03  (-0.5277865E-05)
 number of electron      55.9999995 magnetization       6.0027238
 augmentation part       -2.7904125 magnetization       4.5963150

 Broyden mixing:
  rms(total) = 0.15073E-02    rms(broyden)= 0.15073E-02
  rms(prec ) = 0.16972E-02
  weight for this iteration     100.00

 eigenvalues of (default mixing * dielectric matrix)
  average eigenvalue GAMMA=   1.7181
  9.2729  3.8289  2.7741  2.3449  1.4752  1.4752  1.4569  0.2868  1.1686  0.9514
  0.9514  0.8014  0.8014  0.7141  0.7141  0.6733  0.6100  0.6254

 Free energy of the ion-electron system (eV)
  ---------------------------------------------------
  alpha Z        PSCENC =        33.62852870
  Ewald energy   TEWEN  =      5985.89955237
  -Hartree energ DENC   =     -8017.69780428
  -exchange      EXHF   =         0.00000000
  -V(xc)+E(xc)   XCENC  =       -61.89504483
  PAW double counting   =      1202.59974980    -1045.00564865
  entropy T*S    EENTRO =         0.00000000
  eigenvalues    EBANDS =      -461.17925473
  atomic energy  EATOM  =      2318.27820089
  Solvation  Ediel_sol  =         0.00000000
  ---------------------------------------------------
  free energy    TOTEN  =       -45.37172072 eV

  energy without entropy =      -45.37172072  energy(sigma->0) =      -45.37172072


--------------------------------------------------------------------------------------------------------




--------------------------------------- Iteration      1(  24)  ---------------------------------------


    POTLOK:  cpu time   96.8160: real time   97.2658
    SETDIJ:  cpu time    0.1040: real time    0.1131
     EDDAV:  cpu time   29.5800: real time   29.8535
 BZINTS: Fermi energy: -4.020020; 56.000000 electrons
         Band energy:-460.699574;  BLOECHL correction:  0.000000
       DOS:  cpu time    0.0000: real time    0.0011
    --------------------------------------------
      LOOP:  cpu time  126.5000: real time  127.2335

 eigenvalue-minimisations  :   640
 total energy-change (2. order) :-0.5596067E-04  (-0.2075075E-05)
 number of electron      55.9999995 magnetization       6.0027238
 augmentation part       -2.7904125 magnetization       4.5963150

 Free energy of the ion-electron system (eV)
  ---------------------------------------------------
[...]
     18      -5.4674      1.00000
     19      -5.4451      1.00000
     20      -5.0483      1.00000
     21      -4.7751      1.00000
     22      -4.5345      1.00000
     23      -4.4517      1.00000
     24      -3.9411      1.00000
     25      -3.7744      1.00000
     26      -2.1751      0.00000
     27      -1.6355      0.00000
     28      -1.5396      0.00000
     29      -1.3813      0.00000
     30      -1.0910      0.00000
     31      -0.9850      0.00000
     32      -0.9360      0.00000
     33      -0.5660      0.00000
     34      -0.3875      0.00000
     35      -0.3861      0.00000
     36      -0.2715      0.00000
     37       0.1991      0.00000
     38       0.6906      0.00000
     39       0.8263      0.00000
     40       1.6307      0.00000

 k-point     5 :      -0.4000    0.2000    0.0000
  band No.  band energies     occupation 
      1     -16.4203      1.00000
      2     -16.1372      1.00000
      3     -15.9012      1.00000
      4     -15.8156      1.00000
      5     -15.7129      1.00000
      6     -15.5606      1.00000
      7     -11.7699      1.00000
      8     -10.0111      1.00000
      9      -7.5645      1.00000
     10      -7.2259      1.00000
     11      -7.0080      1.00000
     12      -6.7024      1.00000
     13      -6.4810      1.00000
     14      -6.1598      1.00000
     15      -5.7816      1.00000
     16      -5.5389      1.00000
     17      -5.4372      1.00000
     18      -5.3382      1.00000
     19      -5.2122      1.00000
     20      -5.1302      1.00000
     21      -4.8336      1.00000
     22      -4.4849      1.00000
     23      -4.3505      1.00000
     24      -4.1301      1.00000
     25      -3.9587      1.00000
     26      -2.5498      0.00000
     27      -1.7663      0.00000
     28      -1.6401      0.00000
     29      -1.5870      0.00000
     30      -1.0853      0.00000
     31      -0.9762      0.00000
     32      -0.9393      0.00000
     33      -0.6366      0.00000
     34      -0.6129      0.00000
     35      -0.3019      0.00000
     36      -0.2225      0.00000
     37       0.3275      0.00000
     38       0.4442      0.00000
     39       0.7484      0.00000
     40       1.6133      0.00000


--------------------------------------------------------------------------------------------------------


 soft charge-density along one line, spin component           1
         0         1         2         3         4         5         6         7         8         9
 total charge-density along one line

 soft charge-density along one line, spin component           2
         0         1         2         3         4         5         6         7         8         9
 total charge-density along one line

 pseudopotential strength for first ion, spin component:           1
 -9.036   0.098  -0.000  -0.000  -0.000   0.751  -0.026   0.000
  0.098  -8.959   0.000   0.000  -0.000  -0.026   0.730  -0.000
 -0.000   0.000  -9.120   0.000   0.000   0.000  -0.000   0.774
 -0.000   0.000   0.000  -8.959  -0.098   0.000  -0.000  -0.000
 -0.000  -0.000   0.000  -0.098  -9.036   0.000   0.000  -0.000
  0.751  -0.026   0.000   0.000   0.000   0.345   0.007  -0.000
 -0.026   0.730  -0.000  -0.000   0.000   0.007   0.350   0.000
  0.000  -0.000   0.774  -0.000  -0.000  -0.000   0.000   0.339
  0.000  -0.000  -0.000   0.730   0.026  -0.000   0.000   0.000
  0.000   0.000  -0.000   0.026   0.751  -0.000  -0.000   0.000
 -0.000  -0.000   0.001  -0.000   0.000  -0.000   0.000  -0.000
  0.000   0.000  -0.000   0.000  -0.000  -0.000  -0.000   0.000
 -0.000  -0.000   0.000  -0.000   0.001   0.000   0.000  -0.000
 -0.000  -0.000  -0.000  -0.000  -0.000   0.000   0.000   0.000
  0.001  -0.000   0.000  -0.000   0.000  -0.000   0.000  -0.000
  0.000   0.000  -0.000   0.000  -0.001  -0.000  -0.000   0.000
  0.000   0.000   0.000   0.000   0.000  -0.000  -0.000  -0.000
 -0.001   0.000  -0.000   0.000  -0.000   0.000  -0.000   0.000
 pseudopotential strength for first ion, spin component:           2
 -7.378  -0.182  -0.000   0.000  -0.000   0.282   0.048   0.000
 -0.182  -7.568   0.000   0.000   0.000   0.048   0.332  -0.000
 -0.000   0.000  -7.266   0.000   0.000   0.000  -0.000   0.253
  0.000   0.000   0.000  -7.568   0.182  -0.000  -0.000  -0.000
 -0.000   0.000   0.000   0.182  -7.378   0.000  -0.000  -0.000
  0.282   0.048   0.000  -0.000   0.000   0.473  -0.012  -0.000
  0.048   0.332  -0.000  -0.000  -0.000  -0.012   0.461   0.000
  0.000  -0.000   0.253  -0.000  -0.000  -0.000   0.000   0.481
 -0.000  -0.000  -0.000   0.332  -0.048   0.000   0.000   0.000
  0.000  -0.000  -0.000  -0.048   0.282  -0.000   0.000   0.000
 -0.000  -0.000   0.008  -0.000   0.000  -0.000   0.000  -0.001
  0.000   0.000  -0.001   0.000  -0.000  -0.000  -0.000   0.000
  0.000  -0.000   0.000  -0.000   0.000  -0.000   0.000  -0.000
 -0.000  -0.000  -0.000  -0.000   0.000   0.000   0.000   0.000
  0.000  -0.000   0.000  -0.000  -0.000   0.000   0.000  -0.000
  0.000   0.000  -0.000   0.000  -0.001   0.000  -0.000   0.000
  0.000   0.000   0.000   0.000  -0.000  -0.000  -0.000  -0.000
 -0.001   0.000  -0.000   0.000  -0.000  -0.000  -0.000   0.000
 total augmentation occupancy for first ion, spin component:           1
  0.976  -0.060   0.000   0.000  -0.000   0.014   0.226  -0.000  -0.000  -0.000  -0.000  -0.000  -0.000   0.000   0.008   0.000
 -0.060   0.906  -0.000  -0.000   0.000   0.225   0.248   0.000  -0.000  -0.000  -0.000   0.000  -0.000   0.000   0.003  -0.000
  0.000  -0.000   1.039  -0.000  -0.000  -0.000   0.000  -0.135   0.000   0.000  -0.006  -0.017  -0.000   0.000   0.000   0.000
  0.000  -0.000  -0.000   0.906   0.060  -0.000   0.000   0.000   0.248  -0.225   0.000   0.000  -0.003   0.000  -0.000  -0.000
 -0.000   0.000  -0.000   0.060   0.976   0.000  -0.000   0.000  -0.226   0.014   0.000   0.000   0.008  -0.000   0.000  -0.000
  0.014   0.225  -0.000  -0.000   0.000   0.164   0.063   0.000  -0.000  -0.000   0.000  -0.000  -0.000   0.000   0.025   0.000
  0.226   0.248   0.000   0.000  -0.000   0.063   0.239   0.000  -0.000  -0.000   0.000   0.000  -0.000   0.000  -0.005   0.000
 -0.000   0.000  -0.135   0.000   0.000   0.000   0.000   0.171   0.000  -0.000   0.061  -0.011  -0.000   0.000   0.000   0.000
 -0.000  -0.000   0.000   0.248  -0.226  -0.000  -0.000   0.000   0.239  -0.063  -0.000   0.000   0.005   0.000  -0.000  -0.000
 -0.000  -0.000   0.000  -0.225   0.014  -0.000  -0.000  -0.000  -0.063   0.164  -0.000   0.000   0.025  -0.000   0.000  -0.001
 -0.000   0.000  -0.006   0.000   0.000   0.000   0.000   0.061  -0.000  -0.000   1.048  -0.155   0.000  -0.000   0.000  -0.000
 -0.000  -0.000  -0.017   0.000   0.000  -0.000   0.000  -0.011   0.000   0.000  -0.155   0.060   0.000   0.000   0.000  -0.000
 -0.000  -0.000  -0.000  -0.003   0.008  -0.000  -0.000  -0.000   0.005   0.025  -0.000  -0.000   0.211   0.000  -0.000  -0.002
  0.000  -0.000   0.000   0.000  -0.000   0.000  -0.000   0.000   0.000  -0.000  -0.000   0.000   0.000   0.231   0.000  -0.000
  0.008   0.003   0.000  -0.000   0.000   0.025  -0.005   0.000  -0.000   0.000   0.000   0.000  -0.000   0.000   0.211   0.000
  0.000  -0.000   0.000  -0.000  -0.000   0.000   0.000   0.000  -0.000  -0.001  -0.000   0.000  -0.002  -0.000   0.000   0.000
 -0.000   0.000  -0.000   0.000   0.000  -0.000   0.000  -0.000  -0.000   0.000   0.000  -0.000  -0.000  -0.003  -0.000   0.000
 -0.000   0.000  -0.000  -0.000  -0.000  -0.001   0.000  -0.000   0.000  -0.000   0.000   0.000  -0.000  -0.000  -0.002  -0.000
 total augmentation occupancy for first ion, spin component:           2
  0.721  -0.303   0.000   0.000  -0.000  -0.172   0.067  -0.000  -0.000  -0.000  -0.000  -0.000   0.000  -0.000  -0.006   0.000
 -0.303   0.425  -0.000  -0.000   0.000   0.063  -0.099   0.000  -0.000  -0.000   0.000  -0.000  -0.000   0.000   0.007  -0.000
  0.000  -0.000   0.912  -0.000  -0.000  -0.000   0.000  -0.249   0.000   0.000  -0.037  -0.007   0.000  -0.000  -0.000  -0.000
  0.000  -0.000  -0.000   0.425   0.303  -0.000   0.000   0.000  -0.099  -0.063   0.000   0.000  -0.007   0.000  -0.000  -0.000
 -0.000   0.000  -0.000   0.303   0.721   0.000  -0.000   0.000  -0.067  -0.172   0.000   0.000  -0.006   0.000  -0.000   0.001
 -0.172   0.063  -0.000  -0.000   0.000   0.010  -0.057   0.000   0.000  -0.000   0.000   0.000   0.000   0.000  -0.000  -0.000
  0.067  -0.099   0.000   0.000  -0.000  -0.057  -0.046  -0.000   0.000   0.000   0.000  -0.000   0.000  -0.000  -0.002  -0.000
 -0.000   0.000  -0.249   0.000   0.000   0.000  -0.000   0.065  -0.000  -0.000   0.015   0.006   0.000   0.000  -0.000  -0.000
 -0.000  -0.000   0.000  -0.099  -0.067   0.000   0.000  -0.000  -0.046   0.057  -0.000  -0.000   0.002  -0.000   0.000  -0.000
 -0.000  -0.000   0.000  -0.063  -0.172  -0.000   0.000  -0.000   0.057   0.010  -0.000  -0.000  -0.000  -0.000  -0.000   0.000
 -0.000   0.000  -0.037   0.000   0.000   0.000   0.000   0.015  -0.000  -0.000   0.163   0.066   0.000  -0.000  -0.000  -0.000
 -0.000   0.000  -0.007   0.000   0.000   0.000   0.000   0.006  -0.000  -0.000   0.066  -0.019  -0.000  -0.000   0.000  -0.000
  0.000  -0.000   0.000  -0.007  -0.006   0.000   0.000   0.000   0.002  -0.000   0.000   0.000   0.026   0.000  -0.000   0.003
 -0.000  -0.000  -0.000   0.000   0.000   0.000   0.000   0.000  -0.000  -0.000  -0.000  -0.000   0.000   0.022   0.000   0.000
 -0.006   0.007  -0.000  -0.000  -0.000  -0.000  -0.002  -0.000   0.000  -0.000  -0.000   0.000  -0.000   0.000   0.026  -0.000
  0.000  -0.000  -0.000  -0.000   0.001  -0.000  -0.000  -0.000  -0.000   0.000  -0.000  -0.000   0.003   0.000  -0.000  -0.000
 -0.000  -0.000  -0.000   0.000   0.000   0.000  -0.000   0.000   0.000  -0.000  -0.000   0.000   0.000   0.003   0.000  -0.000
  0.001   0.000   0.000  -0.000  -0.000   0.000   0.000   0.000  -0.000   0.000   0.000   0.000   0.000   0.000   0.003   0.000


------------------------ aborting loop because EDIFF is reached ----------------------------------------





 total charge     

# of ion       s       p       d       tot
------------------------------------------
    1        0.338   0.439   4.215   4.993
    2        0.338   0.439   4.215   4.993
    3        1.153   1.143   0.101   2.397
    4        1.153   1.143   0.101   2.397
    5        1.482   2.311   0.034   3.828
    6        1.478   2.313   0.033   3.825
    7        1.481   2.309   0.034   3.825
    8        1.482   2.311   0.034   3.828
    9        1.478   2.313   0.033   3.825
   10        1.481   2.309   0.034   3.825
--------------------------------------------------
tot         11.865  17.032   8.834  37.732



 magnetization (x)

# of ion       s       p       d       tot
------------------------------------------
    1        0.037   0.042   2.973   3.051
    2        0.037   0.042   2.973   3.051
    3        0.004   0.046  -0.002   0.048
    4        0.004   0.046  -0.002   0.048
    5       -0.001  -0.088   0.005  -0.083
    6       -0.002  -0.073   0.006  -0.068
    7       -0.001  -0.083   0.006  -0.078
    8       -0.001  -0.088   0.005  -0.083
    9       -0.002  -0.073   0.006  -0.068
   10       -0.001  -0.083   0.006  -0.078
--------------------------------------------------
tot          0.076  -0.310   5.975   5.740

    CHARGE:  cpu time    3.2880: real time    3.3317
    FORLOC:  cpu time    0.1320: real time    0.1339
    FORNL :  cpu time   10.9400: real time   11.0089
    STRESS:  cpu time   26.7200: real time   27.0435
    FORCOR:  cpu time   97.8360: real time   98.3801
    FORHAR:  cpu time    0.4240: real time    0.4214
    MIXING:  cpu time    0.0480: real time    0.0499
    OFIELD:  cpu time    0.0000: real time    0.0000

  FORCE on cell =-STRESS in cart. coord.  units (eV):
  Direction    XX          YY          ZZ          XY          YZ          ZX
  --------------------------------------------------------------------------------------
  Alpha Z    40.45590    40.45590    40.45590
  Ewald    8738.14823  8738.14622-10283.91859    -0.00114    -0.00038    -0.00069
  Hartree  9075.05942  9075.05981 -8906.16727    -0.00007     0.00004     0.00007
  E(xc)    -217.48019  -217.48019  -217.23235     0.00002     0.00001     0.00001
  Local  -18514.94772-18514.94726 18460.31229     0.00086     0.00017     0.00032
  n-local   269.61496   271.06991   273.37312     0.71490     0.34635     0.28403
  augment    37.28965    37.28967    34.49039     0.00002     0.00000     0.00003
  Kinetic   573.41329   568.50324   598.41540    -3.63513     0.95471     0.95636
  Fock        0.00000     0.00000     0.00000     0.00000     0.00000     0.00000
  -------------------------------------------------------------------------------------
  Total      -0.17458    -0.17458    -0.27111     0.00000    -0.00000    -0.00000
  in kB      -0.34731    -0.34731    -0.53936     0.00000    -0.00000    -0.00000
  external pressure =       -0.41 kB  Pullay stress =        0.00 kB


 VOLUME and BASIS-vectors are now :
 -----------------------------------------------------------------------------
  energy-cutoff  :      520.00
  volume of cell :      805.33
      direct lattice vectors                 reciprocal lattice vectors
     6.369108024 -0.000000030  0.000000000     0.157007856 -0.090648523 -0.000000000
     3.184553654  5.515809053  0.000000000     0.000000001  0.181297066 -0.000000000
     0.000000000  0.000000000 22.923872080    -0.000000000 -0.000000000  0.043622648

  length of vectors
     6.369108024  6.369107589 22.923872080     0.181297054  0.181297066  0.043622648


 FORCES acting on ions
    electron-ion (+dipol)            ewald-force                    non-local-force                 convergence-correction
 -----------------------------------------------------------------------------------------------
   -.110E-03 -.675E-04 0.393E+00   0.344E-03 0.205E-03 -.395E+00   -.347E-17 0.398E-20 0.104E-01   -.598E-07 -.360E-07 -.447E-04
   0.110E-03 0.675E-04 -.393E+00   -.344E-03 -.205E-03 0.395E+00   -.269E-20 0.347E-17 -.104E-01   0.598E-07 0.360E-07 0.447E-04
   -.276E-04 -.263E-04 0.191E+03   -.170E-03 -.945E-04 -.188E+03   0.437E-17 -.991E-17 -.324E+01   0.153E-07 0.188E-08 -.874E-02
   0.276E-04 0.263E-04 -.191E+03   0.170E-03 0.945E-04 0.188E+03   -.148E-16 0.991E-17 0.324E+01   -.153E-07 -.188E-08 0.874E-02
   -.671E+01 -.315E-01 -.406E+03   0.457E+01 0.345E-01 0.408E+03   0.216E+01 -.161E-02 -.227E+01   -.358E-03 -.252E-04 0.179E-01
   0.332E+01 0.582E+01 -.406E+03   -.226E+01 -.398E+01 0.408E+03   -.108E+01 -.187E+01 -.227E+01   0.157E-03 0.322E-03 0.179E-01
   0.338E+01 -.579E+01 -.406E+03   -.232E+01 0.394E+01 0.408E+03   -.108E+01 0.187E+01 -.227E+01   0.201E-03 -.297E-03 0.179E-01
   0.671E+01 0.315E-01 0.406E+03   -.457E+01 -.345E-01 -.408E+03   -.216E+01 0.161E-02 0.227E+01   0.358E-03 0.252E-04 -.179E-01
   -.332E+01 -.582E+01 0.406E+03   0.226E+01 0.398E+01 -.408E+03   0.108E+01 0.187E+01 0.227E+01   -.157E-03 -.322E-03 -.179E-01
   -.338E+01 0.579E+01 0.406E+03   0.232E+01 -.394E+01 -.408E+03   0.108E+01 -.187E+01 0.227E+01   -.201E-03 0.297E-03 -.179E-01
 -----------------------------------------------------------------------------------------------
   0.507E-10 0.903E-10 0.988E-10   0.213E-13 -.178E-14 -.227E-12   0.444E-15 -.222E-15 0.000E+00   0.158E-12 -.277E-12 -.849E-11


 POSITION                                       TOTAL-FORCE (eV/Angst)
 -----------------------------------------------------------------------------------
      3.18455      1.83860     11.46022         0.000000      0.000000      0.008204
      6.36911      3.67721     11.46366         0.000000      0.000000     -0.008204
      0.00000      0.00000     10.27485         0.000000      0.000000     -0.118818
      0.00000      0.00000     12.64903         0.000000      0.000000      0.118818
      3.98175      0.00069     13.10340         0.026336      0.002048     -0.059685
      1.19428      2.06717     13.10340        -0.011394     -0.023832     -0.059685
      4.37764      3.44795     13.10340        -0.014942      0.021784     -0.059685
      5.57191      5.51512      9.82047        -0.026336     -0.002048      0.059685
      8.35938      3.44864      9.82047         0.011394      0.023832      0.059685
      5.17602      2.06785      9.82047         0.014942     -0.021784      0.059685
 -----------------------------------------------------------------------------------
    total drift:                                0.000000      0.000000      0.000000


--------------------------------------------------------------------------------------------------------



  FREE ENERGIE OF THE ION-ELECTRON SYSTEM (eV)
  ---------------------------------------------------
  free  energy   TOTEN  =       -47.36357956 eV

  energy  without entropy=      -47.36357956  energy(sigma->0) =      -47.36357956

 d Force = 0.8398575E-03[ 0.829E-03, 0.851E-03]  d Energy = 0.1156551E-02-0.317E-03
 d Force =-0.6234465E+01[-0.623E+01,-0.624E+01]  d Ewald  =-0.5389983E+01-0.844E+00


--------------------------------------------------------------------------------------------------------


    POTLOK:  cpu time   96.8160: real time   97.2486


--------------------------------------------------------------------------------------------------------




--------------------------------------------------------------------------------------------------------


  
 reached required accuracy - stopping structural energy minimisation
     LOOP+:  cpu time  925.5560: real time  930.9705
    4ORBIT:  cpu time    0.0000: real time    0.0000



 total charge     

# of ion       s       p       d       tot
------------------------------------------
    1        0.338   0.439   4.215   4.993
    2        0.338   0.439   4.215   4.993
    3        1.153   1.143   0.101   2.397
    4        1.153   1.143   0.101   2.397
    5        1.482   2.311   0.034   3.828
    6        1.478   2.313   0.033   3.825
    7        1.481   2.309   0.034   3.825
    8        1.482   2.311   0.034   3.828
    9        1.478   2.313   0.033   3.825
   10        1.481   2.309   0.034   3.825
--------------------------------------------------
tot         11.865  17.032   8.834  37.732



 magnetization (x)

# of ion       s       p       d       tot
------------------------------------------
    1        0.037   0.042   2.973   3.051
    2        0.037   0.042   2.973   3.051
    3        0.004   0.046  -0.002   0.048
    4        0.004   0.046  -0.002   0.048
    5       -0.001  -0.088   0.005  -0.083
    6       -0.002  -0.073   0.006  -0.068
    7       -0.001  -0.083   0.006  -0.078
    8       -0.001  -0.088   0.005  -0.083
    9       -0.002  -0.073   0.006  -0.068
   10       -0.001  -0.083   0.006  -0.078
--------------------------------------------------
tot          0.076  -0.310   5.975   5.740

 BZINTS: Fermi energy: -3.293012; 56.000000 electrons
         Band energy:-453.081400;  BLOECHL correction:  0.000000

 total amount of memory used by VASP MPI-rank0   171412. kBytes
=======================================================================

   base      :      30000. kBytes
   nonlr-proj:       9605. kBytes
   fftplans  :      20284. kBytes
   grid      :      90201. kBytes
   one-center:        311. kBytes
   wavefun   :      21011. kBytes

  
  
 General timing and accounting informations for this job:
 ========================================================
  
                  Total CPU time used (sec):    11738.856
                            User time (sec):    11692.368
                          System time (sec):       46.488
                         Elapsed time (sec):    11817.314
  
                   Maximum memory used (kb):      588956.
                   Average memory used (kb):           0.
  
                          Minor page faults:     11005921
                          Major page faults:            7
                 Voluntary context switches:          882
