   10   10   99    2
  0.9688350E+02  0.6907777E-09  0.6907776E-09  0.2344459E-08  0.5000000E-15
   1.0000000000000000E-004
  CAR 
 unknown system                          
     65      5     48

  0.3742002E-15  0.3742002E-15  0.1262379E-14  0.4000000E-01
    1      -18.434444    -18.434666   1.000000   1.000000
    2      -16.781876    -16.782090   1.000000   1.000000
    3      -15.624648    -15.624778   1.000000   1.000000
    4      -15.624600    -15.624730   1.000000   1.000000
    5      -15.116221    -15.116397   1.000000   1.000000
    6      -15.116179    -15.116354   1.000000   1.000000
    7      -12.715869    -12.716030   1.000000   1.000000
    8       -9.959395     -9.959631   1.000000   1.000000
    9       -8.747312     -8.747804   1.000000   1.000000
   10       -8.747285     -8.747777   1.000000   1.000000
   11       -8.688160     -8.688552   1.000000   1.000000
   12       -8.001005     -8.001529   1.000000   1.000000
   13       -8.000983     -8.001505   1.000000   1.000000
   14       -7.756465     -7.756879   1.000000   1.000000
   15       -6.405507     -6.405717   1.000000   1.000000
   16       -6.104764     -6.114383   1.000000   1.000000
   17       -6.104753     -6.114376   1.000000   1.000000
   18       -5.612584     -5.607462   1.000000   1.000000
   19       -5.612572     -5.607456   1.000000   1.000000
   20       -5.376084     -5.378165   1.000000   1.000000
   21       -5.016401     -5.017365   1.000000   1.000000
   22       -4.921903     -4.923001   1.000000   1.000000
   23       -4.921888     -4.922984   1.000000   1.000000
   24       -4.468103     -4.479296   1.000000   1.000000
   25       -4.468097     -4.479288   1.000000   1.000000
   26       -4.170662     -4.177421   1.000000   1.000000
   27       -4.040978     -4.032660   1.000000   1.000000
   28       -4.040964     -4.032650   1.000000   1.000000
   29       -3.753256     -3.746683   1.000000   1.000000
   30       -3.620898     -3.620361   1.000000   1.000000
   31       -3.620879     -3.620343   1.000000   1.000000
   32       -2.719134     -2.723313   1.000000   1.000000
   33       -2.719122     -2.723303   0.915869   1.017940
   34       -1.898908     -1.894291   0.000000   0.000000
   35       -1.898893     -1.894276   0.000000   0.000000
   36       -0.297106     -0.297500   0.000000   0.000000
   37        0.489848      0.489211   0.000000   0.000000
   38        1.107547      1.107301   0.000000   0.000000
   39        1.107578      1.107332   0.000000   0.000000
   40        1.942572      1.934800   0.000000   0.000000
   41        2.062395      2.058573   0.000000   0.000000
   42        2.208490      2.202187   0.000000   0.000000
   43        2.472258      2.471767   0.000000   0.000000
   44        2.640880      2.699688   0.000000   0.000000
   45        3.043883      3.043512   0.000000   0.000000
   46        3.043899      3.043527   0.000000   0.000000
   47        3.654902      3.684337   0.000000   0.000000
   48        3.778586      3.778176   0.000000   0.000000

  0.2000000E+00  0.3885781E-15  0.1262379E-14  0.2400000E+00
    1      -18.324209    -18.324430   1.000000   1.000000
    2      -16.665222    -16.665437   1.000000   1.000000
    3      -15.876803    -15.876947   1.000000   1.000000
    4      -15.707729    -15.707859   1.000000   1.000000
    5      -15.261530    -15.261706   1.000000   1.000000
    6      -15.204955    -15.205134   1.000000   1.000000
    7      -12.459140    -12.459293   1.000000   1.000000
    8      -10.038128    -10.038404   1.000000   1.000000
    9       -8.849187     -8.849564   1.000000   1.000000
   10       -8.580626     -8.581064   1.000000   1.000000
   11       -8.459217     -8.459631   1.000000   1.000000
   12       -8.216752     -8.217290   1.000000   1.000000
   13       -7.476124     -7.476802   1.000000   1.000000
   14       -6.924915     -6.925608   1.000000   1.000000
   15       -6.429955     -6.436079   1.000000   1.000000
   16       -6.271495     -6.277061   1.000000   1.000000
   17       -6.077971     -6.077595   1.000000   1.000000
   18       -5.877393     -5.877825   1.000000   1.000000
   19       -5.566254     -5.565561   1.000000   1.000000
   20       -5.321010     -5.322107   1.000000   1.000000
   21       -5.207159     -5.207474   1.000000   1.000000
   22       -5.098510     -5.099486   1.000000   1.000000
   23       -4.841698     -4.842033   1.000000   1.000000
   24       -4.660851     -4.665850   1.000000   1.000000
   25       -4.624953     -4.630512   1.000000   1.000000
   26       -4.337851     -4.344861   1.000000   1.000000
   27       -4.145240     -4.148261   1.000000   1.000000
   28       -4.082060     -4.081765   1.000000   1.000000
   29       -3.919776     -3.913003   1.000000   1.000000
   30       -3.693926     -3.690695   1.000000   1.000000
   31       -3.633752     -3.628576   1.000000   1.000000
   32       -2.801367     -2.807981   1.000000   1.000000
   33       -2.631612     -2.636824   0.089102   0.117363
   34       -2.200550     -2.193595   0.000000   0.000000
   35       -1.961742     -1.956221   0.000000   0.000000
   36        0.010394      0.010125   0.000000   0.000000
   37        0.810045      0.809482   0.000000   0.000000
   38        1.095451      1.095133   0.000000   0.000000
   39        1.236404      1.236080   0.000000   0.000000
   40        1.806527      1.806291   0.000000   0.000000
   41        2.119064      2.111044   0.000000   0.000000
   42        2.379055      2.370731   0.000000   0.000000
   43        2.417890      2.416798   0.000000   0.000000
   44        2.825940      2.868522   0.000000   0.000000
   45        2.983974      2.984555   0.000000   0.000000
   46        3.005228      3.018391   0.000000   0.000000
   47        3.748100      3.748633   0.000000   0.000000
   48        3.876646      3.838340   0.000000   0.000000

  0.4000000E+00  0.4163336E-15  0.1262379E-14  0.2400000E+00
    1      -18.096512    -18.096729   1.000000   1.000000
    2      -16.444363    -16.444560   1.000000   1.000000
    3      -16.255713    -16.255903   1.000000   1.000000
    4      -15.819917    -15.820049   1.000000   1.000000
    5      -15.599430    -15.599597   1.000000   1.000000
    6      -15.328839    -15.329023   1.000000   1.000000
    7      -12.086407    -12.086553   1.000000   1.000000
    8      -10.068434    -10.068772   1.000000   1.000000
    9       -8.801653     -8.801979   1.000000   1.000000
   10       -8.341294     -8.341704   1.000000   1.000000
   11       -8.099886     -8.100207   1.000000   1.000000
   12       -7.694577     -7.695302   1.000000   1.000000
   13       -6.885202     -6.886883   1.000000   1.000000
   14       -6.760834     -6.761582   1.000000   1.000000
   15       -6.507193     -6.512900   1.000000   1.000000
   16       -6.401112     -6.405030   1.000000   1.000000
   17       -6.247082     -6.247714   1.000000   1.000000
   18       -6.095455     -6.093287   1.000000   1.000000
   19       -5.697952     -5.699537   1.000000   1.000000
   20       -5.570251     -5.571682   1.000000   1.000000
   21       -5.346307     -5.345833   1.000000   1.000000
   22       -5.150810     -5.151908   1.000000   1.000000
   23       -5.059474     -5.060566   1.000000   1.000000
   24       -4.625706     -4.632747   1.000000   1.000000
   25       -4.566520     -4.569025   1.000000   1.000000
   26       -4.457468     -4.461967   1.000000   1.000000
   27       -4.237619     -4.235955   1.000000   1.000000
   28       -4.181311     -4.187951   1.000000   1.000000
   29       -3.874360     -3.872488   1.000000   1.000000
   30       -3.828224     -3.822578   1.000000   1.000000
   31       -3.676458     -3.670338   1.000000   1.000000
   32       -2.845036     -2.850443   1.000000   1.000000
   33       -2.787713     -2.791706   0.987480   1.006778
   34       -2.098678     -2.092943   0.000000   0.000000
   35       -2.014107     -2.009416   0.000000   0.000000
   36       -0.150463     -0.150617   0.000000   0.000000
   37        0.699739      0.699360   0.000000   0.000000
   38        0.848036      0.847766   0.000000   0.000000
   39        1.440939      1.440577   0.000000   0.000000
   40        1.605652      1.605197   0.000000   0.000000
   41        1.829449      1.828925   0.000000   0.000000
   42        2.575394      2.570392   0.000000   0.000000
   43        2.622260      2.622435   0.000000   0.000000
   44        2.898809      2.897144   0.000000   0.000000
   45        3.040483      3.030258   0.000000   0.000000
   46        3.398622      3.401199   0.000000   0.000000
   47        3.510596      3.545801   0.000000   0.000000
   48        3.703923      3.712279   0.000000   0.000000

  0.4000000E+00  0.2000000E+00  0.1262379E-14  0.2400000E+00
    1      -18.149175    -18.149393   1.000000   1.000000
    2      -16.473160    -16.473375   1.000000   1.000000
    3      -16.126092    -16.126252   1.000000   1.000000
    4      -15.911879    -15.912019   1.000000   1.000000
    5      -15.453324    -15.453496   1.000000   1.000000
    6      -15.352790    -15.352970   1.000000   1.000000
    7      -12.118660    -12.118799   1.000000   1.000000
    8      -10.029333    -10.029672   1.000000   1.000000
    9       -8.906786     -8.907138   1.000000   1.000000
   10       -8.350073     -8.350449   1.000000   1.000000
   11       -8.150088     -8.150501   1.000000   1.000000
   12       -8.031838     -8.032296   1.000000   1.000000
   13       -6.876475     -6.878112   1.000000   1.000000
   14       -6.605618     -6.609554   1.000000   1.000000
   15       -6.534160     -6.538467   1.000000   1.000000
   16       -6.282795     -6.282319   1.000000   1.000000
   17       -6.122863     -6.124068   1.000000   1.000000
   18       -6.001207     -6.001544   1.000000   1.000000
   19       -5.955877     -5.957004   1.000000   1.000000
   20       -5.729307     -5.731514   1.000000   1.000000
   21       -5.423164     -5.421785   1.000000   1.000000
   22       -5.054167     -5.055960   1.000000   1.000000
   23       -4.736276     -4.743076   1.000000   1.000000
   24       -4.679855     -4.680941   1.000000   1.000000
   25       -4.529624     -4.532652   1.000000   1.000000
   26       -4.376327     -4.378970   1.000000   1.000000
   27       -4.307012     -4.310731   1.000000   1.000000
   28       -4.103324     -4.106229   1.000000   1.000000
   29       -3.921965     -3.914650   1.000000   1.000000
   30       -3.762607     -3.761718   1.000000   1.000000
   31       -3.663042     -3.657339   1.000000   1.000000
   32       -3.051113     -3.055587   1.000000   1.000000
   33       -2.532518     -2.538175  -0.059912  -0.037891
   34       -2.154151     -2.148924   0.000000   0.000000
   35       -1.980913     -1.974808   0.000000   0.000000
   36       -0.212170     -0.212371   0.000000   0.000000
   37        0.686789      0.686356   0.000000   0.000000
   38        0.933683      0.933381   0.000000   0.000000
   39        1.215822      1.215553   0.000000   0.000000
   40        1.733879      1.733585   0.000000   0.000000
   41        2.142282      2.140411   0.000000   0.000000
   42        2.156231      2.154954   0.000000   0.000000
   43        2.594943      2.590623   0.000000   0.000000
   44        2.851534      2.841556   0.000000   0.000000
   45        2.907726      2.907181   0.000000   0.000000
   46        3.292081      3.343210   0.000000   0.000000
   47        3.594180      3.593301   0.000000   0.000000
   48        3.814373      3.818660   0.000000   0.000000

 -0.4000000E+00  0.2000000E+00  0.1262379E-14  0.2400000E+00
    1      -18.013227    -18.013442   1.000000   1.000000
    2      -16.389059    -16.389230   1.000000   1.000000
    3      -16.189739    -16.189956   1.000000   1.000000
    4      -16.034741    -16.034898   1.000000   1.000000
    5      -15.649406    -15.649561   1.000000   1.000000
    6      -15.448303    -15.448482   1.000000   1.000000
    7      -11.889656    -11.889785   1.000000   1.000000
    8       -9.974520     -9.974909   1.000000   1.000000
    9       -8.743074     -8.743418   1.000000   1.000000
   10       -8.293426     -8.293772   1.000000   1.000000
   11       -8.085736     -8.086097   1.000000   1.000000
   12       -7.569894     -7.570641   1.000000   1.000000
   13       -7.372606     -7.372989   1.000000   1.000000
   14       -6.742688     -6.743928   1.000000   1.000000
   15       -6.534213     -6.541324   1.000000   1.000000
   16       -6.234979     -6.235311   1.000000   1.000000
   17       -6.185095     -6.183859   1.000000   1.000000
   18       -6.065659     -6.071385   1.000000   1.000000
   19       -5.801467     -5.801615   1.000000   1.000000
   20       -5.687759     -5.688162   1.000000   1.000000
   21       -5.509950     -5.508612   1.000000   1.000000
   22       -4.909711     -4.913628   1.000000   1.000000
   23       -4.790665     -4.797479   1.000000   1.000000
   24       -4.655613     -4.657558   1.000000   1.000000
   25       -4.546124     -4.544177   1.000000   1.000000
   26       -4.337666     -4.342837   1.000000   1.000000
   27       -4.289646     -4.292342   1.000000   1.000000
   28       -4.125139     -4.125895   1.000000   1.000000
   29       -3.877006     -3.871490   1.000000   1.000000
   30       -3.820999     -3.818739   1.000000   1.000000
   31       -3.710968     -3.707602   1.000000   1.000000
   32       -2.841530     -2.846761   1.000000   1.000000
   33       -2.717444     -2.720968   0.861562   0.879884
   34       -2.120551     -2.114156   0.000000   0.000000
   35       -1.879093     -1.875282   0.000000   0.000000
   36       -0.516105     -0.516276   0.000000   0.000000
   37        0.490509      0.490137   0.000000   0.000000
   38        0.559688      0.559293   0.000000   0.000000
   39        0.979357      0.979063   0.000000   0.000000
   40        1.553562      1.553020   0.000000   0.000000
   41        1.804667      1.804358   0.000000   0.000000
   42        1.996018      1.995477   0.000000   0.000000
   43        2.967656      2.967688   0.000000   0.000000
   44        3.150139      3.146893   0.000000   0.000000
   45        3.291680      3.286698   0.000000   0.000000
   46        3.342110      3.339682   0.000000   0.000000
   47        3.519892      3.511135   0.000000   0.000000
   48        4.039738      4.031815   0.000000   0.000000
