       N       E                     dE             d eps       ncg     rms          rms(c)
DAV:   1     0.421249261617E+03    0.42125E+03   -0.20052E+04   960   0.964E+02
DAV:   2     0.339361851149E+02   -0.38731E+03   -0.36574E+03  1440   0.201E+02
DAV:   3    -0.404297481721E+02   -0.74366E+02   -0.71042E+02  1264   0.793E+01
DAV:   4    -0.432745219446E+02   -0.28448E+01   -0.28205E+01  1120   0.206E+01
DAV:   5    -0.433578801590E+02   -0.83358E-01   -0.83356E-01  1344   0.377E+00    0.454E+01
DAV:   6    -0.103913784252E+03   -0.60556E+02   -0.77599E+02  1312   0.203E+02    0.668E+01
DAV:   7    -0.531498975755E+02    0.50764E+02   -0.73051E+01  1120   0.517E+01    0.351E+01
DAV:   8    -0.391962160619E+02    0.13954E+02   -0.16102E+01  1216   0.340E+01    0.232E+01
DAV:   9    -0.358078810512E+02    0.33883E+01   -0.81609E+00  1472   0.303E+01    0.774E+00
DAV:  10    -0.350758550499E+02    0.73203E+00   -0.19335E+02  1056   0.552E+01    0.697E+00
DAV:  11    -0.354280214334E+02   -0.35217E+00   -0.33091E+00  1296   0.469E+00    0.685E+00
DAV:  12    -0.354396709247E+02   -0.11649E-01   -0.80180E-02  1280   0.135E+00    0.692E+00
DAV:  13    -0.354349762064E+02    0.46947E-02   -0.17816E-02  1200   0.102E+00    0.688E+00
DAV:  14    -0.354347574659E+02    0.21874E-03   -0.12975E-02  1152   0.571E-01    0.688E+00
DAV:  15    -0.354341481896E+02    0.60928E-03   -0.21826E-02  1232   0.476E-01    0.689E+00
DAV:  16    -0.354626631808E+02   -0.28515E-01   -0.17678E-01  1168   0.333E+00    0.736E+00
DAV:  17    -0.354460329268E+02    0.16630E-01   -0.72876E-02  1200   0.199E+00    0.753E+00
DAV:  18    -0.353425254251E+02    0.10351E+00   -0.22447E+00  1360   0.105E+01    0.206E+01
DAV:  19    -0.353000427958E+02    0.42483E-01   -0.34663E-01  1056   0.426E+00    0.158E+01
DAV:  20    -0.353041300940E+02   -0.40873E-02   -0.27647E-01  1056   0.256E+00    0.120E+01
DAV:  21    -0.350322305634E+02    0.27190E+00   -0.17417E-01  1248   0.401E+00    0.819E+00
DAV:  22    -0.344623438929E+02    0.56989E+00   -0.16006E+00  1296   0.153E+01    0.123E+01
DAV:  23    -0.581813965654E+02   -0.23719E+02   -0.23162E+02  1536   0.487E+00    0.219E+01
DAV:  24    -0.339121506041E+02    0.24269E+02   -0.94749E+02  1040   0.291E+01    0.944E+00
DAV:  25    -0.338378814316E+02    0.74269E-01   -0.10739E+00  1184   0.691E+00    0.108E+01
DAV:  26    -0.339435089574E+02   -0.10563E+00   -0.19602E-01   976   0.387E+00    0.108E+01
DAV:  27    -0.339670041612E+02   -0.23495E-01   -0.10332E-01  1024   0.173E+00    0.108E+01
DAV:  28    -0.339065438487E+02    0.60460E-01   -0.16378E-01  1360   0.238E+00    0.110E+01
DAV:  29    -0.346719257933E+02   -0.76538E+00   -0.11264E+00  1376   0.726E+00    0.185E+01
DAV:  30    -0.347078518167E+02   -0.35926E-01   -0.20906E-01  1104   0.328E+00    0.163E+01
DAV:  31    -0.352666810463E+02   -0.55883E+00   -0.57888E-01  1136   0.416E+00    0.190E+01
DAV:  32    -0.352064849669E+02    0.60196E-01   -0.11231E+00  1232   0.742E+00    0.130E+01
DAV:  33    -0.353564726127E+02   -0.14999E+00   -0.11229E+00  1456   0.770E+00    0.115E+01
DAV:  34    -0.346308871596E+02    0.72559E+00   -0.23607E+00  1344   0.110E+01    0.137E+01
DAV:  35    -0.351251077391E+02   -0.49422E+00   -0.10261E+00  1344   0.582E+00    0.122E+01
DAV:  36    -0.796822153024E+02   -0.44557E+02   -0.21441E+00  1248   0.827E+00    0.252E+01
DAV:  37    -0.118628202104E+03   -0.38946E+02   -0.53836E+02  1296   0.209E+01    0.290E+01
DAV:  38    -0.351347347362E+02    0.83493E+02   -0.79996E+02   960   0.206E+01    0.158E+01
DAV:  39    -0.356090325531E+02   -0.47430E+00   -0.46348E-01  1040   0.396E+00    0.132E+01
DAV:  40    -0.355414023571E+02    0.67630E-01   -0.45613E-01  1152   0.287E+00    0.109E+01
DAV:  41    -0.355866098451E+02   -0.45207E-01   -0.16702E-01  1216   0.238E+00    0.111E+01
DAV:  42    -0.356098716952E+02   -0.23262E-01   -0.80545E-02  1184   0.220E+00    0.113E+01
DAV:  43    -0.355984046054E+02    0.11467E-01   -0.68851E-02  1392   0.182E+00    0.114E+01
DAV:  44    -0.431220997856E+02   -0.75237E+01   -0.72478E+01  1344   0.206E+00    0.209E+01
DAV:  45    -0.344642715471E+02    0.86578E+01   -0.85999E+02  1088   0.311E+01    0.118E+01
DAV:  46    -0.324929941891E+03   -0.29047E+03   -0.28948E+03  1456   0.802E+00    0.318E+01
DAV:  47    -0.343129739931E+02    0.29062E+03   -0.20705E+03  1040   0.340E+01    0.127E+01
DAV:  48    -0.353534670958E+02   -0.10405E+01   -0.16851E-01  1072   0.294E+00    0.111E+01
DAV:  49    -0.355840652323E+02   -0.23060E+00   -0.11573E+00  1120   0.196E+00    0.118E+01
DAV:  50    -0.355660900767E+02    0.17975E-01   -0.22110E-02  1184   0.112E+00    0.111E+01
DAV:  51    -0.351658361323E+02    0.40025E+00   -0.20439E+00  1232   0.101E+01    0.110E+01
DAV:  52    -0.352278374638E+02   -0.62001E-01   -0.28693E-01  1168   0.231E+00    0.110E+01
DAV:  53    -0.353032313379E+02   -0.75394E-01   -0.37377E-02  1248   0.172E+00    0.109E+01
DAV:  54    -0.353262504343E+02   -0.23019E-01   -0.11027E-02  1376   0.683E-01    0.108E+01
DAV:  55    -0.197729973259E+03   -0.16240E+03   -0.15730E+03  1376   0.682E-01    0.235E+01
DAV:  56    -0.800856822953E+03   -0.60313E+03   -0.89684E+03  1392   0.300E+01    0.247E+01
DAV:  57    -0.136596471264E+03    0.66426E+03   -0.26871E+03  1344   0.305E+01    0.339E+01
DAV:  58    -0.120232078892E+04   -0.10657E+04   -0.14303E+04  1472   0.706E+01    0.325E+01
DAV:  59    -0.816442322210E+02    0.11207E+04   -0.34113E+03  1216   0.519E+01    0.195E+01
DAV:  60    -0.345095790142E+02    0.47135E+02   -0.63675E+02  1008   0.218E+01    0.117E+01
DAV:  61    -0.411180435379E+02   -0.66085E+01   -0.17889E+00  1248   0.780E+00    0.141E+01
DAV:  62    -0.390131429820E+02    0.21049E+01   -0.25419E+02  1280   0.113E+01    0.144E+01
DAV:  63    -0.349306690151E+02    0.40825E+01   -0.29634E+02  1168   0.135E+01    0.122E+01
DAV:  64    -0.349779698219E+02   -0.47301E-01   -0.18525E+00  1072   0.737E+00    0.129E+01
DAV:  65    -0.409801290099E+03   -0.37482E+03   -0.37299E+03  1504   0.272E+00    0.267E+01
DAV:  66    -0.328821174081E+02    0.37692E+03   -0.17989E+03  1296   0.536E+01    0.157E+01
DAV:  67    -0.583958521166E+02   -0.25514E+02   -0.79808E-01  1392   0.486E+00    0.204E+01
DAV:  68    -0.530058379977E+02    0.53900E+01   -0.76175E+02  1120   0.313E+01    0.191E+01
DAV:  69    -0.338821721261E+02    0.19124E+02   -0.51048E+02  1136   0.198E+01    0.139E+01
DAV:  70    -0.342999947781E+02   -0.41782E+00   -0.15699E-01  1216   0.330E+00    0.121E+01
DAV:  71    -0.357834045307E+02   -0.14834E+01   -0.87163E+00  1296   0.118E+01    0.138E+01
DAV:  72    -0.356741164357E+02    0.10929E+00   -0.24812E-01  1168   0.431E+00    0.132E+01
DAV:  73    -0.356780221303E+02   -0.39057E-02   -0.35523E-02  1120   0.146E+00    0.136E+01
DAV:  74    -0.356486777745E+02    0.29344E-01   -0.28451E-02   976   0.180E+00    0.128E+01
DAV:  75    -0.356526216296E+02   -0.39439E-02   -0.11041E-02  1136   0.874E-01    0.124E+01
DAV:  76    -0.358450425135E+02   -0.19242E+00   -0.40848E-01  1312   0.559E+00    0.922E+00
DAV:  77    -0.357047432135E+02    0.14030E+00   -0.27549E-01  1344   0.627E+00    0.690E+00
DAV:  78    -0.356983305010E+02    0.64127E-02   -0.15099E-01  1280   0.358E+00    0.517E+00
DAV:  79    -0.357146778503E+02   -0.16347E-01   -0.73638E-02  1216   0.215E+00    0.506E+00
DAV:  80    -0.357281105932E+02   -0.13433E-01   -0.21434E-02  1232   0.131E+00    0.527E+00
DAV:  81    -0.419376908005E+02   -0.62096E+01   -0.62200E+01  1200   0.139E+00    0.149E+01
DAV:  82    -0.354409961172E+02    0.64967E+01   -0.62658E+02  1024   0.217E+01    0.505E+00
DAV:  83    -0.356705160316E+02   -0.22952E+00   -0.12882E-02  1120   0.144E+00    0.420E+00
DAV:  84    -0.357023952983E+02   -0.31879E-01   -0.10034E-02  1104   0.861E-01    0.384E+00
DAV:  85    -0.763720414763E+02   -0.40670E+02   -0.27126E+02  1456   0.100E+00    0.205E+01
DAV:  86    -0.351843605130E+02    0.41188E+02   -0.12736E+03  1008   0.427E+01    0.335E+00
DAV:  87    -0.356178559135E+02   -0.43350E+00   -0.57561E-02  1120   0.195E+00    0.260E+00
DAV:  88    -0.356724497515E+02   -0.54594E-01   -0.67225E-03  1168   0.623E-01    0.251E+00
DAV:  89    -0.356822978712E+02   -0.98481E-02   -0.13903E-02  1232   0.981E-01    0.250E+00
DAV:  90    -0.356789473516E+02    0.33505E-02   -0.15118E-02  1152   0.591E-01    0.234E+00
DAV:  91    -0.356761114628E+02    0.28359E-02   -0.84354E-02  1232   0.243E+00    0.133E+00
DAV:  92    -0.356785061401E+02   -0.23947E-02   -0.19852E-02  1120   0.944E-01    0.115E+00
DAV:  93    -0.356811730140E+02   -0.26669E-02   -0.26140E-02  1120   0.119E+00    0.105E+00
DAV:  94    -0.356815090106E+02   -0.33600E-03   -0.22481E-02  1072   0.811E-01    0.954E-01
DAV:  95    -0.356837603431E+02   -0.22513E-02   -0.84863E-03  1120   0.651E-01    0.732E-01
DAV:  96    -0.356849945281E+02   -0.12342E-02   -0.99074E-03  1200   0.751E-01    0.714E-01
DAV:  97    -0.356876836687E+02   -0.26891E-02   -0.16513E-03  1136   0.312E-01    0.709E-01
DAV:  98    -0.356899046834E+02   -0.22210E-02   -0.12218E-03  1056   0.277E-01    0.682E-01
DAV:  99    -0.356913775429E+02   -0.14729E-02   -0.13085E-03   960   0.355E-01    0.644E-01
DAV: 100    -0.356922772856E+02   -0.89974E-03   -0.63091E-04   928   0.163E-01    0.639E-01
DAV: 101    -0.636641102648E+02   -0.27972E+02   -0.27941E+02  1168   0.936E-01    0.158E+01
DAV: 102    -0.353809883853E+02    0.28283E+02   -0.69954E+02   992   0.216E+01    0.194E+00
DAV: 103    -0.356745561604E+02   -0.29357E+00   -0.13693E-02   976   0.983E-01    0.564E-01
DAV: 104    -0.357214478169E+02   -0.46892E-01   -0.85472E-03   976   0.539E-01    0.400E-01
DAV: 105    -0.357297827340E+02   -0.83349E-02   -0.17048E-03  1104   0.298E-01    0.369E-01
DAV: 106    -0.357349728256E+02   -0.51901E-02   -0.37738E-03  1104   0.330E-01    0.288E-01
DAV: 107    -0.357420275097E+02   -0.70547E-02   -0.20666E-03  1136   0.280E-01    0.253E-01
DAV: 108    -0.461901223219E+02   -0.10448E+02   -0.78010E-04  1200   0.173E-01    0.138E+01
DAV: 109    -0.592818209566E+02   -0.13092E+02   -0.60400E+02  1152   0.203E+01    0.133E+01
DAV: 110    -0.360198069676E+02    0.23262E+02   -0.56948E+02  1056   0.199E+01    0.251E+00
DAV: 111    -0.237158005987E+03   -0.20114E+03   -0.83518E+02  1152   0.589E+00    0.232E+01
DAV: 112    -0.349448959637E+02    0.20221E+03   -0.17638E+03  1008   0.450E+01    0.347E+00
DAV: 113    -0.415213930865E+02   -0.65765E+01   -0.95417E-02  1136   0.143E+00    0.984E+00
DAV: 114    -0.355970672217E+02    0.59243E+01   -0.39716E+02   960   0.148E+01    0.968E-01
DAV: 115    -0.357286623038E+02   -0.13160E+00   -0.44124E-03  1072   0.550E-01    0.320E-01
DAV: 116    -0.357467548908E+02   -0.18093E-01   -0.62738E-04  1056   0.216E-01    0.239E-01
DAV: 117    -0.357495355840E+02   -0.27807E-02   -0.29638E-04  1040   0.157E-01    0.223E-01
DAV: 118    -0.357498950054E+02   -0.35942E-03   -0.20060E-04   960   0.965E-02    0.222E-01
DAV: 119    -0.357499217499E+02   -0.26744E-04   -0.10369E-04   912   0.586E-02
   1 F= -.35749922E+02 E0= -.35749922E+02  d E =-.357499E+02  mag=     3.0309
       N       E                     dE             d eps       ncg     rms          rms(c)
DAV:   1    -0.185257143785E+03   -0.14951E+03   -0.15724E+03  1360   0.317E+02    0.111E+02
DAV:   2    -0.355774740501E+03   -0.17052E+03   -0.36247E+03  1584   0.327E+02    0.662E+01
DAV:   3    -0.727168013138E+02    0.28306E+03   -0.75469E+02  1200   0.151E+02    0.362E+01
DAV:   4    -0.626508470784E+02    0.10066E+02   -0.40882E+02  1408   0.255E+02    0.604E+01
DAV:   5    -0.444567213784E+02    0.18194E+02   -0.78356E+01  1312   0.733E+01    0.592E+00
DAV:   6    -0.448715571815E+02   -0.41484E+00   -0.74481E+00  1584   0.202E+01    0.102E+01
DAV:   7    -0.449969289616E+02   -0.12537E+00   -0.40879E+00  1488   0.216E+01    0.107E+01
DAV:   8    -0.450502411739E+02   -0.53312E-01   -0.24206E+00  1552   0.154E+01    0.661E+00
DAV:   9    -0.446176863082E+02    0.43255E+00   -0.71352E-01  1344   0.927E+00    0.316E+00
DAV:  10    -0.445020992427E+02    0.11559E+00   -0.22517E-01  1520   0.343E+00    0.207E+00
DAV:  11    -0.445669279567E+02   -0.64829E-01   -0.49578E-02  1200   0.153E+00    0.260E+00
DAV:  12    -0.445431820150E+02    0.23746E-01   -0.83575E-03  1216   0.122E+00    0.242E+00
DAV:  13    -0.445729561821E+02   -0.29774E-01   -0.12579E-02  1328   0.132E+00    0.293E+00
DAV:  14    -0.445741102158E+02   -0.11540E-02   -0.26014E-03  1344   0.442E-01    0.324E+00
DAV:  15    -0.445603753500E+02    0.13735E-01   -0.55995E-03  1312   0.994E-01    0.296E+00
DAV:  16    -0.445273560684E+02    0.33019E-01   -0.22459E-02  1408   0.136E+00    0.244E+00
DAV:  17    -0.445123796306E+02    0.14976E-01   -0.21461E-02  1344   0.123E+00    0.145E+00
DAV:  18    -0.445145469569E+02   -0.21673E-02   -0.59757E-03  1248   0.588E-01    0.956E-01
DAV:  19    -0.445144030279E+02    0.14393E-03   -0.41348E-04  1136   0.265E-01    0.966E-01
DAV:  20    -0.445144288555E+02   -0.25828E-04   -0.98356E-05   768   0.868E-02
   2 F= -.44514429E+02 E0= -.44514429E+02  d E =-.876451E+01  mag=     1.4514
       N       E                     dE             d eps       ncg     rms          rms(c)
DAV:   1    -0.755912703072E+02   -0.31077E+02   -0.42654E+02  1248   0.193E+02    0.634E+01
DAV:   2    -0.157288452973E+03   -0.81697E+02   -0.79187E+02  1008   0.381E+02    0.485E+01
DAV:   3    -0.535871192625E+02    0.10370E+03   -0.27844E+02  1232   0.119E+02    0.219E+01
DAV:   4    -0.478063022758E+02    0.57808E+01   -0.10774E+02  1280   0.197E+02    0.262E+01
DAV:   5    -0.415695914836E+02    0.62367E+01   -0.42151E+01  1312   0.648E+01    0.772E+00
DAV:   6    -0.419095920704E+02   -0.34000E+00   -0.61113E+00  1552   0.281E+01    0.687E+00
DAV:   7    -0.421218685664E+02   -0.21228E+00   -0.14213E+00  1488   0.161E+01    0.685E+00
DAV:   8    -0.413568609060E+02    0.76501E+00   -0.11802E+00  1456   0.226E+01    0.144E+00
DAV:   9    -0.413453189864E+02    0.11542E-01   -0.31805E-01  1536   0.351E+00    0.504E-01
DAV:  10    -0.413510641949E+02   -0.57452E-02   -0.27164E-02  1440   0.109E+00    0.331E-01
DAV:  11    -0.413555283115E+02   -0.44641E-02   -0.36170E-03  1376   0.880E-01    0.333E-01
DAV:  12    -0.413609455825E+02   -0.54173E-02   -0.76988E-03  1408   0.162E+00    0.336E-01
DAV:  13    -0.413605351446E+02    0.41044E-03   -0.35547E-03  1232   0.110E+00    0.143E-01
DAV:  14    -0.413619343938E+02   -0.13992E-02   -0.12167E-03  1488   0.389E-01    0.183E-01
DAV:  15    -0.413624966105E+02   -0.56222E-03   -0.28048E-03  1136   0.699E-01    0.486E-02
DAV:  16    -0.413622408966E+02    0.25571E-03   -0.59762E-04  1088   0.245E-01    0.479E-02
DAV:  17    -0.413622971420E+02   -0.56245E-04   -0.18227E-04   928   0.812E-02
   3 F= -.41362297E+02 E0= -.41362297E+02  d E =-.561238E+01  mag=     0.0084
       N       E                     dE             d eps       ncg     rms          rms(c)
DAV:   1    -0.604567339728E+02   -0.19094E+02   -0.24236E+02  1152   0.157E+02    0.307E+01
DAV:   2    -0.815066022217E+02   -0.21050E+02   -0.15069E+02  1184   0.220E+02    0.698E+01
DAV:   3    -0.521004914104E+02    0.29406E+02   -0.68844E+01  1184   0.112E+02    0.222E+01
DAV:   4    -0.465597754689E+02    0.55407E+01   -0.17375E+01  1216   0.518E+01    0.105E+01
DAV:   5    -0.454853324663E+02    0.10744E+01   -0.25271E+00  1552   0.141E+01    0.657E+00
DAV:   6    -0.451667408223E+02    0.31859E+00   -0.52406E-01  1360   0.746E+00    0.580E+00
DAV:   7    -0.449971507933E+02    0.16959E+00   -0.23900E-01  1312   0.657E+00    0.473E+00
DAV:   8    -0.446780089179E+02    0.31914E+00   -0.16562E-01  1376   0.778E+00    0.241E+00
DAV:   9    -0.445787828893E+02    0.99226E-01   -0.18469E-01  1408   0.474E+00    0.123E+00
DAV:  10    -0.445750552840E+02    0.37276E-02   -0.84010E-02  1280   0.224E+00    0.875E-01
DAV:  11    -0.445691365953E+02    0.59187E-02   -0.13568E-02  1248   0.121E+00    0.128E-01
DAV:  12    -0.445679885766E+02    0.11480E-02   -0.29275E-03  1504   0.370E-01    0.298E-01
DAV:  13    -0.445666964866E+02    0.12921E-02   -0.18491E-03  1120   0.434E-01    0.118E-01
DAV:  14    -0.445660171222E+02    0.67936E-03   -0.17958E-03   976   0.227E-01    0.107E-01
DAV:  15    -0.445640551257E+02    0.19620E-02   -0.17715E-03  1056   0.283E-01    0.672E-02
DAV:  16    -0.445622325991E+02    0.18225E-02   -0.75353E-04  1056   0.181E-01    0.606E-02
DAV:  17    -0.445620184499E+02    0.21415E-03   -0.10561E-04   976   0.768E-02    0.759E-02
DAV:  18    -0.445626321611E+02   -0.61371E-03   -0.16085E-03   848   0.396E-01    0.151E-01
DAV:  19    -0.445651360631E+02   -0.25039E-02   -0.29369E-03  1184   0.391E-01    0.312E-01
DAV:  20    -0.445651655026E+02   -0.29440E-04   -0.23806E-04   864   0.160E-01
   4 F= -.44565166E+02 E0= -.44565166E+02  d E =-.881524E+01  mag=     0.0004
       N       E                     dE             d eps       ncg     rms          rms(c)
DAV:   1    -0.446241542818E+02   -0.59018E-01   -0.57620E-01  1088   0.727E+00    0.192E+00
DAV:   2    -0.447578214188E+02   -0.13367E+00   -0.66511E-01  1168   0.156E+01    0.366E+00
DAV:   3    -0.445949055155E+02    0.16292E+00   -0.33704E-01   992   0.110E+01    0.112E+00
DAV:   4    -0.445938658121E+02    0.10397E-02   -0.25521E-02  1120   0.860E-01    0.128E+00
DAV:   5    -0.446075452934E+02   -0.13679E-01   -0.21200E-02  1232   0.191E+00    0.201E+00
DAV:   6    -0.446209061407E+02   -0.13361E-01   -0.15645E-01  1344   0.363E+00    0.830E-01
DAV:   7    -0.446344240556E+02   -0.13518E-01   -0.37101E-02  1376   0.157E+00    0.791E-01
DAV:   8    -0.446391197778E+02   -0.46957E-02   -0.64003E-03  1408   0.734E-01    0.708E-01
DAV:   9    -0.446435235411E+02   -0.44038E-02   -0.81898E-03  1408   0.114E+00    0.410E-01
DAV:  10    -0.446405389408E+02    0.29846E-02   -0.33753E-03  1264   0.812E-01    0.655E-01
DAV:  11    -0.446445812220E+02   -0.40423E-02   -0.12369E-02  1248   0.158E+00    0.961E-02
DAV:  12    -0.446452878965E+02   -0.70667E-03   -0.23308E-03  1376   0.308E-01    0.467E-02
DAV:  13    -0.446453827652E+02   -0.94869E-04   -0.11030E-04   672   0.145E-01
   5 F= -.44645383E+02 E0= -.44645383E+02  d E =-.889546E+01  mag=     0.0074
       N       E                     dE             d eps       ncg     rms          rms(c)
DAV:   1    -0.447764583542E+02   -0.13117E+00   -0.16684E+00  1200   0.127E+01    0.316E+00
DAV:   2    -0.450975724919E+02   -0.32111E+00   -0.18496E+00  1040   0.274E+01    0.596E+00
DAV:   3    -0.446632833056E+02    0.43429E+00   -0.90867E-01  1024   0.177E+01    0.925E-01
DAV:   4    -0.446591613678E+02    0.41219E-02   -0.10319E-01  1232   0.275E+00    0.999E-01
DAV:   5    -0.446542345757E+02    0.49268E-02   -0.21742E-02  1328   0.242E+00    0.413E-01
DAV:   6    -0.446530067006E+02    0.12279E-02   -0.31432E-03  1248   0.802E-01    0.116E-01
DAV:   7    -0.446529581534E+02    0.48547E-04   -0.11894E-03  1472   0.283E-01    0.559E-02
DAV:   8    -0.446529447026E+02    0.13451E-04   -0.15952E-04   800   0.122E-01
   6 F= -.44652945E+02 E0= -.44652945E+02  d E =-.890302E+01  mag=     0.0040
       N       E                     dE             d eps       ncg     rms          rms(c)
DAV:   1    -0.446627054928E+02   -0.97473E-02   -0.11846E-01  1184   0.336E+00    0.848E-01
DAV:   2    -0.446853544627E+02   -0.22649E-01   -0.13371E-01  1008   0.696E+00    0.162E+00
DAV:   3    -0.446536915532E+02    0.31663E-01   -0.64232E-02   992   0.568E+00    0.206E-01
DAV:   4    -0.446545110087E+02   -0.81946E-03   -0.77103E-03  1280   0.580E-01    0.281E-01
DAV:   5    -0.446542612871E+02    0.24972E-03   -0.17855E-03  1088   0.686E-01    0.200E-01
DAV:   6    -0.446539960823E+02    0.26520E-03   -0.55667E-04   912   0.406E-01    0.414E-02
DAV:   7    -0.446540474074E+02   -0.51325E-04   -0.11542E-04   784   0.979E-02
   7 F= -.44654047E+02 E0= -.44654047E+02  d E =-.890413E+01  mag=     0.0020
       N       E                     dE             d eps       ncg     rms          rms(c)
DAV:   1    -0.447107730408E+02   -0.56777E-01   -0.65827E+00   960   0.102E+01    0.150E+00
DAV:   2    -0.447815655969E+02   -0.70793E-01   -0.69949E-01  1184   0.101E+01    0.226E+00
DAV:   3    -0.447252969704E+02    0.56269E-01   -0.20012E-01  1120   0.820E+00    0.816E-01
DAV:   4    -0.447158386545E+02    0.94583E-02   -0.38865E-02  1136   0.169E+00    0.363E-01
DAV:   5    -0.447230837071E+02   -0.72451E-02   -0.31404E-02  1184   0.294E+00    0.125E+00
DAV:   6    -0.447140453696E+02    0.90383E-02   -0.23712E-02  1104   0.255E+00    0.137E-01
DAV:   7    -0.447138544487E+02    0.19092E-03   -0.17085E-03  1152   0.352E-01    0.957E-02
DAV:   8    -0.447137222048E+02    0.13224E-03   -0.24428E-04   848   0.164E-01    0.271E-02
DAV:   9    -0.447137119619E+02    0.10243E-04   -0.15056E-04   752   0.861E-02
   8 F= -.44713712E+02 E0= -.44713712E+02  d E =-.596646E-01  mag=    -0.0020
       N       E                     dE             d eps       ncg     rms          rms(c)
DAV:   1    -0.447138469664E+02   -0.12476E-03   -0.17566E-02  1008   0.557E-01    0.813E-02
DAV:   2    -0.447140392003E+02   -0.19223E-03   -0.19698E-03  1344   0.530E-01    0.122E-01
DAV:   3    -0.447138465702E+02    0.19263E-03   -0.57626E-04  1056   0.465E-01    0.531E-02
DAV:   4    -0.447138860741E+02   -0.39504E-04   -0.22969E-04   752   0.248E-01
   9 F= -.44713886E+02 E0= -.44713886E+02  d E =-.598387E-01  mag=    -0.0024
       N       E                     dE             d eps       ncg     rms          rms(c)
DAV:   1    -0.447740682649E+02   -0.60222E-01   -0.35544E+00   960   0.958E+00    0.185E+00
DAV:   2    -0.448803391163E+02   -0.10627E+00   -0.73170E-01  1408   0.144E+01    0.330E+00
DAV:   3    -0.447538928403E+02    0.12645E+00   -0.30755E-01  1056   0.105E+01    0.668E-01
DAV:   4    -0.447605583898E+02   -0.66655E-02   -0.65107E-02  1264   0.301E+00    0.133E+00
DAV:   5    -0.447517769916E+02    0.87814E-02   -0.33578E-02  1200   0.300E+00    0.433E-01
DAV:   6    -0.447506652227E+02    0.11118E-02   -0.42434E-03  1104   0.948E-01    0.114E-01
DAV:   7    -0.447508226236E+02   -0.15740E-03   -0.73344E-04  1232   0.209E-01    0.425E-02
DAV:   8    -0.447509374521E+02   -0.11483E-03   -0.78942E-05   704   0.105E-01    0.110E-02
DAV:   9    -0.447509649092E+02   -0.27457E-04   -0.27662E-05   784   0.302E-02
  10 F= -.44750965E+02 E0= -.44750965E+02  d E =-.370788E-01  mag=     0.0021
       N       E                     dE             d eps       ncg     rms          rms(c)
DAV:   1    -0.447633065462E+02   -0.12369E-01   -0.81690E-01   960   0.452E+00    0.881E-01
DAV:   2    -0.447866292237E+02   -0.23323E-01   -0.16424E-01  1152   0.672E+00    0.157E+00
DAV:   3    -0.447580946881E+02    0.28535E-01   -0.68117E-02  1008   0.521E+00    0.298E-01
DAV:   4    -0.447581369761E+02   -0.42288E-04   -0.99917E-03  1072   0.526E-01    0.185E-01
DAV:   5    -0.447585679273E+02   -0.43095E-03   -0.23419E-03  1040   0.813E-01    0.335E-01
DAV:   6    -0.447578251383E+02    0.74279E-03   -0.17135E-03  1008   0.686E-01    0.557E-02
DAV:   7    -0.447581101489E+02   -0.28501E-03   -0.16231E-04   720   0.119E-01    0.302E-02
DAV:   8    -0.447581526352E+02   -0.42486E-04   -0.64816E-05   800   0.692E-02
  11 F= -.44758153E+02 E0= -.44758153E+02  d E =-.442666E-01  mag=     0.0035
       N       E                     dE             d eps       ncg     rms          rms(c)
DAV:   1    -0.447635640546E+02   -0.54539E-02   -0.19691E-01   960   0.246E+00    0.503E-01
DAV:   2    -0.447710469425E+02   -0.74829E-02   -0.52798E-02   960   0.391E+00    0.918E-01
DAV:   3    -0.447612179539E+02    0.98290E-02   -0.22604E-02   992   0.321E+00    0.158E-01
DAV:   4    -0.447620278022E+02   -0.80985E-03   -0.44304E-03  1328   0.605E-01    0.294E-01
DAV:   5    -0.447615026346E+02    0.52517E-03   -0.14918E-03  1152   0.616E-01    0.123E-01
DAV:   6    -0.447615170063E+02   -0.14372E-04   -0.29468E-04   848   0.284E-01
  12 F= -.44761517E+02 E0= -.44761517E+02  d E =-.336437E-02  mag=     0.0043
       N       E                     dE             d eps       ncg     rms          rms(c)
DAV:   1    -0.447617665884E+02   -0.26395E-03   -0.86522E-03   992   0.519E-01    0.103E-01
DAV:   2    -0.447620467654E+02   -0.28018E-03   -0.20985E-03  1024   0.768E-01    0.184E-01
DAV:   3    -0.447616943667E+02    0.35240E-03   -0.10719E-03   976   0.661E-01    0.978E-02
DAV:   4    -0.447617406244E+02   -0.46258E-04   -0.36173E-04   800   0.271E-01
  13 F= -.44761741E+02 E0= -.44761741E+02  d E =-.358799E-02  mag=     0.0049
       N       E                     dE             d eps       ncg     rms          rms(c)
DAV:   1    -0.447728503107E+02   -0.11156E-01   -0.22787E-01  1056   0.377E+00    0.933E-01
DAV:   2    -0.447986337390E+02   -0.25783E-01   -0.15971E-01  1040   0.742E+00    0.177E+00
DAV:   3    -0.447627094782E+02    0.35924E-01   -0.74507E-02   976   0.608E+00    0.248E-01
DAV:   4    -0.447655716925E+02   -0.28622E-02   -0.15715E-02  1312   0.148E+00    0.730E-01
DAV:   5    -0.447628748295E+02    0.26969E-02   -0.78681E-03  1248   0.139E+00    0.198E-01
DAV:   6    -0.447627421605E+02    0.13267E-03   -0.87215E-04  1040   0.429E-01    0.693E-02
DAV:   7    -0.447627778212E+02   -0.35661E-04   -0.25374E-04   864   0.139E-01
  14 F= -.44762778E+02 E0= -.44762778E+02  d E =-.103720E-02  mag=     0.0044
       N       E                     dE             d eps       ncg     rms          rms(c)
DAV:   1    -0.447638081357E+02   -0.10660E-02   -0.25160E-02  1136   0.123E+00    0.302E-01
DAV:   2    -0.447666087034E+02   -0.28006E-02   -0.16749E-02  1008   0.245E+00    0.571E-01
DAV:   3    -0.447626240299E+02    0.39847E-02   -0.77920E-03   960   0.188E+00    0.819E-02
DAV:   4    -0.447630651411E+02   -0.44111E-03   -0.14504E-03  1232   0.444E-01    0.215E-01
DAV:   5    -0.447627712911E+02    0.29385E-03   -0.67717E-04   816   0.420E-01    0.588E-02
DAV:   6    -0.447628482348E+02   -0.76944E-04   -0.79727E-05   640   0.130E-01
  15 F= -.44762848E+02 E0= -.44762848E+02  d E =-.110761E-02  mag=     0.0036
       N       E                     dE             d eps       ncg     rms          rms(c)
DAV:   1    -0.447647187684E+02   -0.19475E-02   -0.68165E-02   960   0.111E+00    0.138E-01
DAV:   2    -0.447652583913E+02   -0.53962E-03   -0.50410E-03  1216   0.969E-01    0.236E-01
DAV:   3    -0.447646592995E+02    0.59909E-03   -0.18677E-03  1040   0.831E-01    0.103E-01
DAV:   4    -0.447647893772E+02   -0.13008E-03   -0.68730E-04   960   0.393E-01    0.139E-01
DAV:   5    -0.447647246185E+02    0.64759E-04   -0.31508E-04   784   0.273E-01
  16 F= -.44764725E+02 E0= -.44764725E+02  d E =-.187638E-02  mag=     0.0032
       N       E                     dE             d eps       ncg     rms          rms(c)
DAV:   1    -0.447664002788E+02   -0.16109E-02   -0.60438E-01  1040   0.332E+00    0.420E-01
DAV:   2    -0.447719623853E+02   -0.55621E-02   -0.45416E-02  1280   0.302E+00    0.724E-01
DAV:   3    -0.447661842566E+02    0.57781E-02   -0.16142E-02  1008   0.246E+00    0.190E-01
DAV:   4    -0.447670661275E+02   -0.88187E-03   -0.47657E-03  1424   0.938E-01    0.415E-01
DAV:   5    -0.447662044121E+02    0.86172E-03   -0.30543E-03  1296   0.885E-01    0.118E-01
DAV:   6    -0.447664673838E+02   -0.26297E-03   -0.44334E-04   896   0.256E-01    0.506E-02
DAV:   7    -0.447665198858E+02   -0.52502E-04   -0.72609E-05   752   0.827E-02
  17 F= -.44766520E+02 E0= -.44766520E+02  d E =-.367165E-02  mag=     0.0003
       N       E                     dE             d eps       ncg     rms          rms(c)
DAV:   1    -0.447680073755E+02   -0.15400E-02   -0.20651E-01  1056   0.203E+00    0.276E-01
DAV:   2    -0.447699695667E+02   -0.19622E-02   -0.16411E-02  1184   0.193E+00    0.466E-01
DAV:   3    -0.447675119033E+02    0.24577E-02   -0.65261E-03   960   0.159E+00    0.132E-01
DAV:   4    -0.447681294261E+02   -0.61752E-03   -0.24419E-03  1344   0.720E-01    0.316E-01
DAV:   5    -0.447676290840E+02    0.50034E-03   -0.15892E-03  1024   0.645E-01    0.737E-02
DAV:   6    -0.447677978786E+02   -0.16879E-03   -0.20600E-04   752   0.152E-01    0.265E-02
DAV:   7    -0.447678164823E+02   -0.18604E-04   -0.56523E-05   688   0.607E-02
  18 F= -.44767816E+02 E0= -.44767816E+02  d E =-.129660E-02  mag=    -0.0036
       N       E                     dE             d eps       ncg     rms          rms(c)
DAV:   1    -0.447679428603E+02   -0.14498E-03   -0.45785E-02   960   0.956E-01    0.130E-01
DAV:   2    -0.447683209068E+02   -0.37805E-03   -0.36556E-03  1152   0.907E-01    0.218E-01
DAV:   3    -0.447677787243E+02    0.54218E-03   -0.14305E-03   976   0.750E-01    0.518E-02
DAV:   4    -0.447678757986E+02   -0.97074E-04   -0.29627E-04   816   0.204E-01
  19 F= -.44767876E+02 E0= -.44767876E+02  d E =-.135591E-02  mag=    -0.0050
       N       E                     dE             d eps       ncg     rms          rms(c)
DAV:   1    -0.447684517874E+02   -0.67306E-03   -0.18872E-02   992   0.719E-01    0.156E-01
DAV:   2    -0.447692565816E+02   -0.80479E-03   -0.47782E-03  1088   0.116E+00    0.373E-01
DAV:   3    -0.447685477991E+02    0.70878E-03   -0.42782E-03  1008   0.115E+00    0.279E-01
DAV:   4    -0.447682232365E+02    0.32456E-03   -0.16086E-03  1008   0.624E-01    0.951E-02
DAV:   5    -0.447682315517E+02   -0.83152E-05   -0.24396E-04   848   0.182E-01
  20 F= -.44768232E+02 E0= -.44768232E+02  d E =-.355753E-03  mag=    -0.0064
       N       E                     dE             d eps       ncg     rms          rms(c)
DAV:   1    -0.447685582068E+02   -0.33497E-03   -0.21538E-02   992   0.711E-01    0.142E-01
DAV:   2    -0.447689328967E+02   -0.37469E-03   -0.34259E-03  1136   0.925E-01    0.224E-01
DAV:   3    -0.447684146457E+02    0.51825E-03   -0.17815E-03   992   0.822E-01    0.129E-01
DAV:   4    -0.447684707132E+02   -0.56067E-04   -0.80184E-04  1008   0.428E-01
  21 F= -.44768471E+02 E0= -.44768471E+02  d E =-.594915E-03  mag=    -0.0064
