 vasp.5.4.4.18Apr17-6-g9f103f2a35 (build May  1 2020 15:48:39) complex           
 executed on             LinuxGNU date 2020.06.18  11:04:35
 running on   16 total cores
 distrk:  each k-point on   16 cores,    1 groups
 distr:  one band on NCORES_PER_BAND=   1 cores,   16 groups


--------------------------------------------------------------------------------------------------------


 INCAR:
 POTCAR:   PAW_PBE Ni 06Sep2000                   
 POTCAR:   PAW_PBE Si 05Jan2001                   
 POTCAR:    PAW_PBE P 17Jan2003                   
 POTCAR:    PAW_PBE S 17Jan2003                   

 ----------------------------------------------------------------------------- 
|                                                                             |
|           W    W    AA    RRRRR   N    N  II  N    N   GGGG   !!!           |
|           W    W   A  A   R    R  NN   N  II  NN   N  G    G  !!!           |
|           W    W  A    A  R    R  N N  N  II  N N  N  G       !!!           |
|           W WW W  AAAAAA  RRRRR   N  N N  II  N  N N  G  GGG   !            |
|           WW  WW  A    A  R   R   N   NN  II  N   NN  G    G                |
|           W    W  A    A  R    R  N    N  II  N    N   GGGG   !!!           |
|                                                                             |
|      For optimal performance we recommend to set                            |
|        NCORE= 4 - approx SQRT( number of cores)                             |
|      NCORE specifies how many cores store one orbital (NPAR=cpu/NCORE).     |
|      This setting can  greatly improve the performance of VASP for DFT.     |
|      The default,   NCORE=1            might be grossly inefficient         |
|      on modern multi-core architectures or massively parallel machines.     |
|      Do your own testing !!!!                                               |
|      Unfortunately you need to use the default for GW and RPA calculations. |
|      (for HF NCORE is supported but not extensively tested yet)             |
|                                                                             |
 ----------------------------------------------------------------------------- 


 ----------------------------------------------------------------------------- 
|                                                                             |
|  ADVICE TO THIS USER RUNNING 'VASP/VAMP'   (HEAR YOUR MASTER'S VOICE ...):  |
|                                                                             |
|      You have switched on vdW-DFT.                                          |
|      This routine was written and supplied by Jiri Klimes.                  |
|      We recommed that you carefully read and cite the following             |
|      publication                                                            |
|      J. Klimes, D.R. Bowler, A. Michelides                                  |
|        J. Phys.: Cond Matt. 22 022201 (2010)                                |
|      J. Klimes, D.R. Bowler, A. Michelides                                  |
|        Phys. Rev. B. 83, 195131 (2011)                                      |
|      and references therein.                                                |
|                                                                             |
 ----------------------------------------------------------------------------- 

 POTCAR:   PAW_PBE Ni 06Sep2000                   
   VRHFIN =Ni:                                                                  
   LEXCH  = PE                                                                  
   EATOM  =  1077.9025 eV,   79.2236 Ry                                         
                                                                                
   TITEL  = PAW_PBE Ni 06Sep2000                                                
   LULTRA =        F    use ultrasoft PP ?                                      
   IUNSCR =        1    unscreen: 0-lin 1-nonlin 2-no                           
   RPACOR =    2.000    partial core radius                                     
   POMASS =   58.690; ZVAL   =   10.000    mass and valenz                      
   RCORE  =    2.300    outmost cutoff radius                                   
   RWIGS  =    2.430; RWIGS  =    1.286    wigner-seitz radius (au A)           
   ENMAX  =  269.533; ENMIN  =  202.150 eV                                      
   RCLOC  =    1.681    cutoff for local pot                                    
   LCOR   =        T    correct aug charges                                     
   LPAW   =        T    paw PP                                                  
   EAUG   =  544.565                                                            
   DEXC   =    -.009                                                            
   RMAX   =    2.808    core radius for proj-oper                               
   RAUG   =    1.300    factor for augmentation sphere                          
   RDEP   =    2.390    radius for radial grids                                 
   QCUT   =   -4.451; QGAM   =    8.902    optimization parameters              
                                                                                
   Description                                                                  
     l     E      TYP  RCUT    TYP  RCUT                                        
     2   .000     23  2.300                                                     
     2   .000     23  2.300                                                     
     0   .000     23  2.300                                                     
     0   .000     23  2.300                                                     
     1  -.200     23  2.300                                                     
     1   .000     23  2.300                                                     
     3   .000      7   .000                                                     
  local pseudopotential read in
  partial core-charges read in
  atomic valenz-charges read in
  non local Contribution for L=           2  read in
    real space projection operators read in
  non local Contribution for L=           2  read in
    real space projection operators read in
  non local Contribution for L=           0  read in
    real space projection operators read in
  non local Contribution for L=           0  read in
    real space projection operators read in
  non local Contribution for L=           1  read in
    real space projection operators read in
  non local Contribution for L=           1  read in
    real space projection operators read in
    PAW grid and wavefunctions read in

   number of l-projection  operators is LMAX  =           6
   number of lm-projection operators is LMMAX =          18

 POTCAR:   PAW_PBE Si 05Jan2001                   
   VRHFIN =Si: s2p2                                                             
   LEXCH  = PE                                                                  
   EATOM  =   103.0669 eV,    7.5752 Ry                                         
                                                                                
   TITEL  = PAW_PBE Si 05Jan2001                                                
   LULTRA =        F    use ultrasoft PP ?                                      
   IUNSCR =        1    unscreen: 0-lin 1-nonlin 2-no                           
   RPACOR =    1.500    partial core radius                                     
   POMASS =   28.085; ZVAL   =    4.000    mass and valenz                      
   RCORE  =    1.900    outmost cutoff radius                                   
   RWIGS  =    2.480; RWIGS  =    1.312    wigner-seitz radius (au A)           
   ENMAX  =  245.345; ENMIN  =  184.009 eV                                      
   ICORE  =        2    local potential                                         
   LCOR   =        T    correct aug charges                                     
   LPAW   =        T    paw PP                                                  
   EAUG   =  322.069                                                            
   DEXC   =    -.007                                                            
   RMAX   =    2.944    core radius for proj-oper                               
   RAUG   =    1.300    factor for augmentation sphere                          
   RDEP   =    1.993    radius for radial grids                                 
   QCUT   =   -4.246; QGAM   =    8.493    optimization parameters              
                                                                                
   Description                                                                  
     l     E      TYP  RCUT    TYP  RCUT                                        
     0   .000     23  1.900                                                     
     0   .000     23  1.900                                                     
     1   .000     23  1.900                                                     
     1   .000     23  1.900                                                     
     2   .000      7  1.900                                                     
  local pseudopotential read in
  partial core-charges read in
  atomic valenz-charges read in
  non local Contribution for L=           0  read in
    real space projection operators read in
  non local Contribution for L=           0  read in
    real space projection operators read in
  non local Contribution for L=           1  read in
    real space projection operators read in
  non local Contribution for L=           1  read in
    real space projection operators read in
    PAW grid and wavefunctions read in

   number of l-projection  operators is LMAX  =           4
   number of lm-projection operators is LMMAX =           8

 POTCAR:    PAW_PBE P 17Jan2003                   
   VRHFIN =P : s2p3                                                             
   LEXCH  = PE                                                                  
   EATOM  =   176.0430 eV,   12.9388 Ry                                         
                                                                                
   TITEL  = PAW_PBE P 17Jan2003                                                 
   LULTRA =        F    use ultrasoft PP ?                                      
   IUNSCR =        1    unscreen: 0-lin 1-nonlin 2-no                           
   RPACOR =    1.500    partial core radius                                     
   POMASS =   30.974; ZVAL   =    5.000    mass and valenz                      
   RCORE  =    1.900    outmost cutoff radius                                   
   RWIGS  =    2.330; RWIGS  =    1.233    wigner-seitz radius (au A)           
   ENMAX  =  270.000; ENMIN  =  191.280 eV                                      
   ICORE  =        2    local potential                                         
   LCOR   =        T    correct aug charges                                     
   LPAW   =        T    paw PP                                                  
   EAUG   =  342.924                                                            
   DEXC   =    -.002                                                            
   RMAX   =    2.887    core radius for proj-oper                               
   RAUG   =    1.300    factor for augmentation sphere                          
   RDEP   =    1.931    radius for radial grids                                 
   QCUT   =   -4.330; QGAM   =    8.659    optimization parameters              
                                                                                
   Description                                                                  
     l     E      TYP  RCUT    TYP  RCUT                                        
     0   .000     23  1.900                                                     
     0   .000     23  1.900                                                     
     1   .000     23  1.900                                                     
     1   .000     23  1.900                                                     
     2   .000     23  1.900                                                     
  local pseudopotential read in
  partial core-charges read in
  atomic valenz-charges read in
  non local Contribution for L=           0  read in
    real space projection operators read in
  non local Contribution for L=           0  read in
    real space projection operators read in
  non local Contribution for L=           1  read in
    real space projection operators read in
  non local Contribution for L=           1  read in
    real space projection operators read in
    PAW grid and wavefunctions read in

   number of l-projection  operators is LMAX  =           4
   number of lm-projection operators is LMMAX =           8

 POTCAR:    PAW_PBE S 17Jan2003                   
   VRHFIN =S : s2p4                                                             
   LEXCH  = PE                                                                  
   EATOM  =   276.8230 eV,   20.3459 Ry                                         
                                                                                
   TITEL  = PAW_PBE S 17Jan2003                                                 
   LULTRA =        F    use ultrasoft PP ?                                      
   IUNSCR =        1    unscreen: 0-lin 1-nonlin 2-no                           
   RPACOR =    1.500    partial core radius                                     
   POMASS =   32.066; ZVAL   =    6.000    mass and valenz                      
   RCORE  =    1.900    outmost cutoff radius                                   
   RWIGS  =    2.200; RWIGS  =    1.164    wigner-seitz radius (au A)           
   ENMAX  =  280.000; ENMIN  =  194.016 eV                                      
   ICORE  =        2    local potential                                         
   LCOR   =        T    correct aug charges                                     
   LPAW   =        T    paw PP                                                  
   EAUG   =  335.092                                                            
   DEXC   =     .000                                                            
   RMAX   =    2.867    core radius for proj-oper                               
   RAUG   =    1.300    factor for augmentation sphere                          
   RDEP   =    1.954    radius for radial grids                                 
   QCUT   =   -4.360; QGAM   =    8.721    optimization parameters              
                                                                                
   Description                                                                  
     l     E      TYP  RCUT    TYP  RCUT                                        
     0   .000     23  1.900                                                     
     0   .000     23  1.900                                                     
     1   .000     23  1.900                                                     
     1   .000     23  1.900                                                     
     2   .000     23  1.900                                                     
  local pseudopotential read in
  partial core-charges read in
  atomic valenz-charges read in
  non local Contribution for L=           0  read in
    real space projection operators read in
  non local Contribution for L=           0  read in
    real space projection operators read in
  non local Contribution for L=           1  read in
    real space projection operators read in
  non local Contribution for L=           1  read in
    real space projection operators read in
    PAW grid and wavefunctions read in

   number of l-projection  operators is LMAX  =           4
   number of lm-projection operators is LMMAX =           8

 Optimization of the real space projectors (new method)

 maximal supplied QI-value         = 16.25
 optimisation between [QCUT,QGAM] = [ 11.54, 23.24] = [ 37.28,151.24] Ry 
 Optimized for a Real-space Cutoff    1.49 Angstroem

   l    n(q)    QCUT    max X(q) W(low)/X(q) W(high)/X(q)  e(spline) 
   2      9    11.539     4.811    0.20E-04    0.14E-04    0.45E-07
   2      9    11.539    15.146    0.24E-03    0.12E-03    0.20E-06
   0     10    11.539    14.357    0.18E-04    0.12E-05    0.14E-07
   0     10    11.539    43.282    0.39E-04    0.17E-04    0.23E-06
   1     10    11.539     5.514    0.99E-05    0.13E-04    0.19E-07
   1     10    11.539     7.697    0.38E-04    0.79E-04    0.91E-07
 Optimization of the real space projectors (new method)

 maximal supplied QI-value         = 19.84
 optimisation between [QCUT,QGAM] = [ 11.51, 23.22] = [ 37.09,150.92] Ry 
 Optimized for a Real-space Cutoff    1.21 Angstroem

   l    n(q)    QCUT    max X(q) W(low)/X(q) W(high)/X(q)  e(spline) 
   0      8    11.508     8.708    0.18E-04    0.44E-05    0.47E-08
   0      8    11.508   106.241    0.70E-04    0.15E-03    0.51E-07
   1      8    11.508     5.901    0.63E-05    0.23E-04    0.21E-07
   1      8    11.508    73.241    0.15E-03    0.36E-04    0.79E-07
 Optimization of the real space projectors (new method)

 maximal supplied QI-value         = 19.84
 optimisation between [QCUT,QGAM] = [ 11.51, 23.22] = [ 37.09,150.92] Ry 
 Optimized for a Real-space Cutoff    1.21 Angstroem

   l    n(q)    QCUT    max X(q) W(low)/X(q) W(high)/X(q)  e(spline) 
   0      8    11.508     6.651    0.19E-04    0.31E-05    0.49E-08
   0      8    11.508    90.285    0.95E-04    0.17E-03    0.51E-07
   1      8    11.508     4.328    0.14E-04    0.32E-04    0.22E-07
   1      8    11.508    54.583    0.16E-03    0.71E-04    0.89E-07
 Optimization of the real space projectors (new method)

 maximal supplied QI-value         = 19.84
 optimisation between [QCUT,QGAM] = [ 11.51, 23.22] = [ 37.09,150.92] Ry 
 Optimized for a Real-space Cutoff    1.21 Angstroem

   l    n(q)    QCUT    max X(q) W(low)/X(q) W(high)/X(q)  e(spline) 
   0      8    11.508     5.487    0.18E-04    0.22E-05    0.47E-08
   0      8    11.508    85.627    0.96E-04    0.18E-03    0.54E-07
   1      8    11.508     3.530    0.17E-04    0.28E-04    0.21E-07
   1      8    11.508    42.714    0.18E-03    0.63E-04    0.92E-07

 ----------------------------------------------------------------------------- 
|                                                                             |
|  ADVICE TO THIS USER RUNNING 'VASP/VAMP'   (HEAR YOUR MASTER'S VOICE ...):  |
|                                                                             |
|      You enforced a specific xc-type in the INCAR file,                     |
|      a different type was found on the POTCAR file                          |
|          I HOPE YOU KNOW, WHAT YOU ARE  DOING                               |
|                                                                             |
 ----------------------------------------------------------------------------- 

 PAW_PBE Ni 06Sep2000                   :
 energy of atom  1       EATOM=-1077.9025
 kinetic energy error for atom=    0.0030 (will be added to EATOM!!)
 PAW_PBE Si 05Jan2001                   :
 energy of atom  2       EATOM= -103.0669
 kinetic energy error for atom=    0.0005 (will be added to EATOM!!)
  PAW_PBE P 17Jan2003                   :
 energy of atom  3       EATOM= -176.0430
 kinetic energy error for atom=    0.0011 (will be added to EATOM!!)
  PAW_PBE S 17Jan2003                   :
 energy of atom  4       EATOM= -276.8230
 kinetic energy error for atom=    0.0016 (will be added to EATOM!!)


 POSCAR: Ni2 Si P S6                             
  positions in direct lattice
  velocities in cartesian coordinates
  No initial velocities read in
 exchange correlation table for  LEXCH =       42
   RHO(1)=    0.500       N(1)  =     2000
   RHO(2)=  100.500       N(2)  =     4000



--------------------------------------------------------------------------------------------------------


 ion  position               nearest neighbor table
   1  0.333  0.333  0.500-   6 2.78   5 2.78   7 2.78   8 2.78  10 2.78   9 2.78
   2  0.667  0.667  0.500-   9 2.78   8 2.78  10 2.78   5 2.78   7 2.78   6 2.78
   3  0.000  0.000  0.448-   4 2.43   8 2.63  10 2.63   9 2.63
   4  0.000  0.000  0.552-   3 2.43   5 2.63   7 2.63   6 2.63
   5  0.626  0.000  0.574-   4 2.63   1 2.78   2 2.78
   6  0.000  0.373  0.574-   4 2.63   1 2.78   2 2.78
   7  0.373  0.626  0.574-   4 2.63   1 2.78   2 2.78
   8  0.374  1.000  0.426-   3 2.63   2 2.78   1 2.78
   9  1.000  0.627  0.426-   3 2.63   2 2.78   1 2.78
  10  0.627  0.374  0.426-   3 2.63   2 2.78   1 2.78

  LATTYP: Found a hexagonal cell.
 ALAT       =     6.9077769333
 C/A-ratio  =     3.3939410937
  
  Lattice vectors:
  
 A1 = (   3.4538890000,  -5.9823100000,   0.0000000000)
 A2 = (  -6.9077770000,   0.0000000000,   0.0000000000)
 A3 = (   0.0000000000,   0.0000000000, -23.4445880000)


Analysis of symmetry for initial positions (statically):
=====================================================================
 Subroutine PRICEL returns:
 Original cell was already a primitive cell.
 

 Routine SETGRP: Setting up the symmetry group for a 
 hexagonal supercell.


 Subroutine GETGRP returns: Found  3 space group operations
 (whereof  3 operations were pure point group operations)
 out of a pool of 24 trial point group operations.


The static configuration has the point symmetry C_3 .


Analysis of symmetry for dynamics (positions and initial velocities):
=====================================================================
 Subroutine PRICEL returns:
 Original cell was already a primitive cell.
 

 Routine SETGRP: Setting up the symmetry group for a 
 hexagonal supercell.


 Subroutine GETGRP returns: Found  3 space group operations
 (whereof  3 operations were pure point group operations)
 out of a pool of 24 trial point group operations.


The dynamic configuration has the point symmetry C_3 .


Analysis of constrained symmetry for selective dynamics:
=====================================================================
 Subroutine PRICEL returns:
 Original cell was already a primitive cell.
 

 Routine SETGRP: Setting up the symmetry group for a 
 hexagonal supercell.


 Subroutine GETGRP returns: Found  3 space group operations
 (whereof  3 operations were pure point group operations)
 out of a pool of 24 trial point group operations.


The constrained configuration has the point symmetry C_3 .


Analysis of structural, dynamic, and magnetic symmetry:
=====================================================================
 Subroutine PRICEL returns:
 Original cell was already a primitive cell.
 

 Routine SETGRP: Setting up the symmetry group for a 
 hexagonal supercell.


 Subroutine GETGRP returns: Found  3 space group operations
 (whereof  3 operations were pure point group operations)
 out of a pool of 24 trial point group operations.


The magnetic configuration has the point symmetry C_3 .


 Subroutine INISYM returns: Found  3 space group operations
 (whereof  3 operations are pure point group operations),
 and found     1 'primitive' translations



 KPOINTS: Kpoints from vasprun.xml                

Automatic generation of k-mesh.
Space group operators:
 irot       det(A)        alpha          n_x          n_y          n_z        tau_x        tau_y        tau_z
    1     1.000000     0.000000     1.000000     0.000000     0.000000     0.000000     0.000000     0.000000
    2     1.000000   120.000000     0.000000     0.000000     1.000000     0.000000     0.000000     0.000000
    3     1.000000   120.000000     0.000000     0.000000    -1.000000     0.000000     0.000000     0.000000
 
 Subroutine IBZKPT returns following result:
 ===========================================
 
 Found      5 irreducible k-points:
 
 Following reciprocal coordinates:
            Coordinates               Weight
  0.000000  0.000000  0.000000      1.000000
  0.200000  0.000000  0.000000      6.000000
  0.400000  0.000000  0.000000      6.000000
  0.400000  0.200000  0.000000      6.000000
 -0.400000  0.200000  0.000000      6.000000
 
 Following cartesian coordinates:
            Coordinates               Weight
  0.000000  0.000000  0.000000      1.000000
  0.028953 -0.016716  0.000000      6.000000
  0.057906 -0.033432  0.000000      6.000000
  0.057906  0.000000  0.000000      6.000000
 -0.057906  0.066864  0.000000      6.000000
 
 TETIRR: Found     15 inequivalent tetrahedra from      150


--------------------------------------------------------------------------------------------------------




 Dimension of arrays:
   k-points           NKPTS =      5   k-points in BZ     NKDIM =      5   number of bands    NBANDS=     48
   number of dos      NEDOS =    301   number of ions     NIONS =     10
   non local maximal  LDIM  =      6   non local SUM 2l+1 LMDIM =     18
   total plane-waves  NPLWV = 524880
   max r-space proj   IRMAX =   7543   max aug-charges    IRDMAX=  18311
   dimension x,y,z NGX =    54 NGY =   54 NGZ =  180
   dimension x,y,z NGXF=   108 NGYF=  108 NGZF=  360
   support grid    NGXF=   108 NGYF=  108 NGZF=  360
   ions per type =               2   1   1   6
   NGX,Y,Z   is equivalent  to a cutoff of  13.00, 13.00, 12.76 a.u.
   NGXF,Y,Z  is equivalent  to a cutoff of  25.99, 25.99, 25.53 a.u.

 SYSTEM =  unknown system                          
 POSCAR =  Ni2 Si P S6                             

 Startparameter for this run:
   NWRITE =      2    write-flag & timer
   PREC   = accura    normal or accurate (medium, high low for compatibility)
   ISTART =      0    job   : 0-new  1-cont  2-samecut
   ICHARG =      2    charge: 1-file 2-atom 10-const
   ISPIN  =      2    spin polarized calculation?
   LNONCOLLINEAR =      F non collinear calculations
   LSORBIT =      F    spin-orbit coupling
   INIWAV =      1    electr: 0-lowe 1-rand  2-diag
   LASPH  =      F    aspherical Exc in radial PAW
   METAGGA=      F    non-selfconsistent MetaGGA calc.

 Electronic Relaxation 1
   ENCUT  =  520.0 eV  38.22 Ry    6.18 a.u.  12.84 12.84 43.59*2*pi/ulx,y,z
   ENINI  =  520.0     initial cutoff
   ENAUG  =  544.6 eV  augmentation charge cutoff
   NELM   =    400;   NELMIN=  2; NELMDL=  0     # of ELM steps 
   EDIFF  = 0.1E-03   stopping-criterion for ELM
   LREAL  =      T    real-space projection
   NLSPLINE    = F    spline interpolate recip. space projectors
   LCOMPAT=      F    compatible to vasp.4.4
   GGA_COMPAT  = T    GGA compatible to vasp.4.4-vasp.4.6
   LMAXPAW     = -100 max onsite density
   LMAXMIX     =    2 max onsite mixed and CHGCAR
   VOSKOWN=      0    Vosko Wilk Nusair interpolation
   ROPT   =   -0.00025  -0.00025  -0.00025  -0.00025
 Ionic relaxation
   EDIFFG = 0.1E-02   stopping-criterion for IOM
   NSW    =     99    number of steps for IOM
   NBLOCK =      1;   KBLOCK =     99    inner block; outer block 
   IBRION =      2    ionic relax: 0-MD 1-quasi-New 2-CG
   NFREE  =      1    steps in history (QN), initial steepest desc. (CG)
   ISIF   =      3    stress and relaxation
   IWAVPR =     11    prediction:  0-non 1-charg 2-wave 3-comb
   ISYM   =      2    0-nonsym 1-usesym 2-fastsym
   LCORR  =      T    Harris-Foulkes like correction to forces

   POTIM  = 0.5000    time-step for ionic-motion
   TEIN   =    0.0    initial temperature
   TEBEG  =    0.0;   TEEND  =   0.0 temperature during run
   SMASS  =  -3.00    Nose mass-parameter (am)
   estimated Nose-frequenzy (Omega)   =  0.10E-29 period in steps =****** mass=  -0.109E-26a.u.
   SCALEE = 1.0000    scale energy and forces
   NPACO  =    256;   APACO  = 16.0  distance and # of slots for P.C.
   PSTRESS=    0.0 pullay stress

  Mass of Ions in am
   POMASS =  58.69 28.09 30.97 32.07
  Ionic Valenz
   ZVAL   =  10.00  4.00  5.00  6.00
  Atomic Wigner-Seitz radii
   RWIGS  =  -1.00 -1.00 -1.00 -1.00
  virtual crystal weights 
   VCA    =   1.00  1.00  1.00  1.00
   NELECT =      65.0000    total number of electrons
   NUPDOWN=      -1.0000    fix difference up-down

 DOS related values:
   EMIN   =  10.00;   EMAX   =-10.00  energy-range for DOS
   EFERMI =   0.00
   ISMEAR =    -5;   SIGMA  =   0.05  broadening in eV -4-tet -1-fermi 0-gaus

 Electronic relaxation 2 (details)
   IALGO  =     38    algorithm
   LDIAG  =      T    sub-space diagonalisation (order eigenvalues)
   LSUBROT=      F    optimize rotation matrix (better conditioning)
   TURBO    =      0    0=normal 1=particle mesh
   IRESTART =      0    0=no restart 2=restart with 2 vectors
   NREBOOT  =      0    no. of reboots
   NMIN     =      0    reboot dimension
   EREF     =   0.00    reference energy to select bands
   IMIX   =      4    mixing-type and parameters
     AMIX     =   0.40;   BMIX     =  1.00
     AMIX_MAG =   1.60;   BMIX_MAG =  1.00
     AMIN     =   0.01
     WC   =   100.;   INIMIX=   1;  MIXPRE=   1;  MAXMIX= -45

 Intra band minimization:
   WEIMIN = 0.0010     energy-eigenvalue tresh-hold
   EBREAK =  0.52E-06  absolut break condition
   DEPER  =   0.30     relativ break condition  

   TIME   =   0.40     timestep for ELM

  volume/ion in A,a.u.               =      96.88       653.80
  Fermi-wavevector in a.u.,A,eV,Ry     =   0.665216  1.257076  6.020745  0.442512
  Thomas-Fermi vector in A             =   1.739143

 Write flags
   LWAVE        =      F    write WAVECAR
   LDOWNSAMPLE  =      F    k-point downsampling of WAVECAR
   LCHARG       =      T    write CHGCAR
   LVTOT        =      F    write LOCPOT, total local potential
   LVHAR        =      F    write LOCPOT, Hartree potential only
   LELF         =      F    write electronic localiz. function (ELF)
   LORBIT       =     11    0 simple, 1 ext, 2 COOP (PROOUT), +10 PAW based schemes


 Dipole corrections
   LMONO  =      F    monopole corrections only (constant potential shift)
   LDIPOL =      F    correct potential (dipole corrections)
   IDIPOL =      0    1-x, 2-y, 3-z, 4-all directions 
   EPSILON=  1.0000000 bulk dielectric constant

 Exchange correlation treatment:
   GGA     =    BO    GGA type
   LEXCH   =    42    internal setting for exchange type
   VOSKOWN=      0    Vosko Wilk Nusair interpolation
   LHFCALC =     F    Hartree Fock is set to
   LHFONE  =     F    Hartree Fock one center treatment
   AEXX    =    0.0000 exact exchange contribution

 vdW DFT:
   LUSE_VDW   =     T    switch on vdW DFT
   Zab_VDW    =-.8491    correlation parameter
   PARAM1     =0.1833
   PARAM2     =0.2200
   PARAM3     =0.0000
   -- rVV10 --
   BPARAM     = 6.3000
   CPARAM     = 0.0093

 Linear response parameters
   LEPSILON=     F    determine dielectric tensor
   LRPA    =     F    only Hartree local field effects (RPA)
   LNABLA  =     F    use nabla operator in PAW spheres
   LVEL    =     F    velocity operator in full k-point grid
   LINTERFAST=   F  fast interpolation
   KINTER  =     0    interpolate to denser k-point grid
   CSHIFT  =0.1000    complex shift for real part using Kramers Kronig
   OMEGAMAX=  -1.0    maximum frequency
   DEG_THRESHOLD= 0.2000000E-02 threshold for treating states as degnerate
   RTIME   =   -0.100 relaxation time in fs
  (WPLASMAI=    0.000 imaginary part of plasma frequency in eV, 0.658/RTIME)
   DFIELD  = 0.0000000 0.0000000 0.0000000 field for delta impulse in time

 Orbital magnetization related:
   ORBITALMAG=     F  switch on orbital magnetization
   LCHIMAG   =     F  perturbation theory with respect to B field
   DQ        =  0.001000  dq finite difference perturbation B field
   LLRAUG    =     F  two centre corrections for induced B field



--------------------------------------------------------------------------------------------------------


 conjugate gradient relaxation of ions
   using selective dynamics as specified on POSCAR
 charge density and potential will be updated during run
 spin polarized calculation
 Variant of blocked Davidson
 Davidson routine will perform the subspace rotation
 perform sub-space diagonalisation
    after iterative eigenvector-optimisation
 modified Broyden-mixing scheme, WC =      100.0
 initial mixing is a Kerker type mixing with AMIX =  0.4000 and BMIX =      1.0000
 Hartree-type preconditioning will be used
 using additional bands           15
 real space projection scheme for non local part
 use partial core corrections
 calculate Harris-corrections to forces   (improved forces if not selfconsistent)
 use gradient corrections 
 use of overlap-Matrix (Vanderbilt PP)
 Fermi weights with tetrahedron method with Bloechl corrections


--------------------------------------------------------------------------------------------------------


  energy-cutoff  :      520.00
  volume of cell :      968.84
      direct lattice vectors                 reciprocal lattice vectors
     6.907777000 -0.000000000  0.000000000     0.144764372 -0.083579742  0.000000000
     3.453888000  5.982310000  0.000000000     0.000000000  0.167159509 -0.000000000
     0.000000000  0.000000000 23.444588000    -0.000000000  0.000000000  0.042653767

  length of vectors
     6.907777000  6.907776433 23.444588000     0.167159495  0.167159509  0.042653767



 k-points in units of 2pi/SCALE and weight: Kpoints from vasprun.xml                
   0.00000000  0.00000000  0.00000000       0.040
   0.02895287 -0.01671595  0.00000000       0.240
   0.05790575 -0.03343190  0.00000000       0.240
   0.05790575  0.00000000  0.00000000       0.240
  -0.05790575  0.06686380  0.00000000       0.240

 k-points in reciprocal lattice and weights: Kpoints from vasprun.xml                
   0.00000000  0.00000000  0.00000000       0.040
   0.20000000  0.00000000  0.00000000       0.240
   0.40000000  0.00000000  0.00000000       0.240
   0.40000000  0.20000000  0.00000000       0.240
  -0.40000000  0.20000000  0.00000000       0.240

 position of ions in fractional coordinates (direct lattice) 
   0.33333300  0.33333300  0.49992500
   0.66666700  0.66666700  0.50007500
   0.00000000  0.00000000  0.44821600
   0.00000000  0.00000000  0.55178400
   0.62635700  0.00042000  0.57375200
   0.00042000  0.37322400  0.57375200
   0.37322400  0.62635700  0.57375200
   0.37364300  0.99958000  0.42624800
   0.99958000  0.62677600  0.42624800
   0.62677600  0.37364300  0.42624800

 position of ions in cartesian coordinates  (Angst):
   3.45388488  1.99410134 11.72053566
   6.90778012  3.98820866 11.72405234
   0.00000000  0.00000000 10.50823946
   0.00000000  0.00000000 12.93634854
   4.32818511  0.00251257 13.45137925
   1.29197516  2.23274167 13.45137925
   4.74151509  3.74706174 13.45137925
   6.03347989  5.97979743  9.99320875
   9.06968984  3.74956833  9.99320875
   5.62014991  2.23524826  9.99320875



--------------------------------------------------------------------------------------------------------


 k-point  1 :   0.0000 0.0000 0.0000  plane waves:   26073
 k-point  2 :   0.2000 0.0000 0.0000  plane waves:   26070
 k-point  3 :   0.4000 0.0000 0.0000  plane waves:   26086
 k-point  4 :   0.4000 0.2000 0.0000  plane waves:   26085
 k-point  5 :  -0.4000 0.2000 0.0000  plane waves:   26115

 maximum and minimum number of plane-waves per node :     26115    26070

 maximum number of plane-waves:     26115
 maximum index in each direction: 
   IXMAX=   13   IYMAX=   12   IZMAX=   43
   IXMIN=  -13   IYMIN=  -13   IZMIN=  -43


 serial   3D FFT for wavefunctions
 parallel 3D FFT for charge:
    minimum data exchange during FFTs selected (reduces bandwidth)


 total amount of memory used by VASP MPI-rank0   128255. kBytes
=======================================================================

   base      :      30000. kBytes
   nonlr-proj:       5770. kBytes
   fftplans  :      11247. kBytes
   grid      :      68332. kBytes
   one-center:        311. kBytes
   wavefun   :      12595. kBytes

     INWAV:  cpu time    0.0000: real time    0.0014
 Broyden mixing: mesh for mixing (old mesh)
   NGX = 25   NGY = 25   NGZ = 87
  (NGX  =108   NGY  =108   NGZ  =360)
  gives a total of  54375 points

 initial charge density was supplied:
 charge density of overlapping atoms calculated
 number of electron      65.0000000 magnetization       7.3200000
 keeping initial charge density in first step


--------------------------------------------------------------------------------------------------------


 Maximum index for non-local projection operator         7247
 Maximum index for augmentation-charges         1288 (set IRDMAX)


--------------------------------------------------------------------------------------------------------


 First call to EWALD:  gamma=   0.179
 Maximum number of real-space cells 4x 4x 1
 Maximum number of reciprocal cells 2x 2x 6

    FEWALD:  cpu time    0.0000: real time    0.0014


--------------------------------------- Iteration      1(   1)  ---------------------------------------


vdW kernel read from vdw_kernel.bindat
  0.0000  0.2424  0.5071  0.7962  1.1119  1.4567  1.8333  2.2446  2.6937  3.1842
  3.7199  4.3049  4.9438  5.6415  6.4036  7.2358  8.1446  9.1372 10.2212 11.4050
 12.6979 14.1099 15.6519 17.3360 19.1751 21.1837 23.3773 25.7729 28.3892 31.2465
 34.3669 37.7748 41.4965 45.5611 50.0000

    POTLOK:  cpu time   51.2080: real time   52.7823
    SETDIJ:  cpu time    0.0400: real time    0.0402
     EDDAV:  cpu time   22.3080: real time   22.4316
 BZINTS: Fermi energy:  4.617581; 65.000000 electrons
         Band energy: -45.968259;  BLOECHL correction: -0.028236
       DOS:  cpu time    0.0080: real time    0.0064
    --------------------------------------------
      LOOP:  cpu time   73.5640: real time   75.2605

 eigenvalue-minimisations  :   960
 total energy-change (2. order) : 0.4212493E+03  (-0.2005195E+04)
 number of electron      65.0000000 magnetization       7.3200000
 augmentation part       65.0000000 magnetization       7.3200000

 Free energy of the ion-electron system (eV)
  ---------------------------------------------------
  alpha Z        PSCENC =        25.56480543
  Ewald energy   TEWEN  =      8338.88239735
  -Hartree energ DENC   =    -12044.38930560
  -exchange      EXHF   =         0.00000000
  -V(xc)+E(xc)   XCENC  =       119.79009374
  PAW double counting   =      2416.54608399    -2500.13549756
  entropy T*S    EENTRO =         0.00000000
  eigenvalues    EBANDS =       -45.96825885
  atomic energy  EATOM  =      4110.95894311
  Solvation  Ediel_sol  =         0.00000000
  ---------------------------------------------------
  free energy    TOTEN  =       421.24926162 eV

  energy without entropy =      421.24926162  energy(sigma->0) =      421.24926162


--------------------------------------------------------------------------------------------------------




--------------------------------------- Iteration      1(   2)  ---------------------------------------


     EDDAV:  cpu time   32.3960: real time   32.4625
 BZINTS: Fermi energy: -2.204377; 65.000000 electrons
         Band energy:-433.281335;  BLOECHL correction: -0.027132
       DOS:  cpu time    0.0080: real time    0.0068
    --------------------------------------------
      LOOP:  cpu time   32.4040: real time   32.4692

 eigenvalue-minimisations  :  1440
 total energy-change (2. order) :-0.3873131E+03  (-0.3657363E+03)
 number of electron      65.0000000 magnetization       7.3200000
 augmentation part       65.0000000 magnetization       7.3200000

 Free energy of the ion-electron system (eV)
  ---------------------------------------------------
  alpha Z        PSCENC =        25.56480543
  Ewald energy   TEWEN  =      8338.88239735
  -Hartree energ DENC   =    -12044.38930560
  -exchange      EXHF   =         0.00000000
  -V(xc)+E(xc)   XCENC  =       119.79009374
  PAW double counting   =      2416.54608399    -2500.13549756
  entropy T*S    EENTRO =         0.00000000
  eigenvalues    EBANDS =      -433.28133535
  atomic energy  EATOM  =      4110.95894311
  Solvation  Ediel_sol  =         0.00000000
  ---------------------------------------------------
  free energy    TOTEN  =        33.93618511 eV

  energy without entropy =       33.93618511  energy(sigma->0) =       33.93618511


--------------------------------------------------------------------------------------------------------




--------------------------------------- Iteration      1(   3)  ---------------------------------------


     EDDAV:  cpu time   28.7120: real time   28.7380
 BZINTS: Fermi energy: -2.836635; 65.000000 electrons
         Band energy:-507.647269;  BLOECHL correction: -0.007395
       DOS:  cpu time    0.0040: real time    0.0052
    --------------------------------------------
      LOOP:  cpu time   28.7160: real time   28.7432

 eigenvalue-minimisations  :  1264
 total energy-change (2. order) :-0.7436593E+02  (-0.7104152E+02)
 number of electron      65.0000000 magnetization       7.3200000
 augmentation part       65.0000000 magnetization       7.3200000

 Free energy of the ion-electron system (eV)
  ---------------------------------------------------
  alpha Z        PSCENC =        25.56480543
  Ewald energy   TEWEN  =      8338.88239735
  -Hartree energ DENC   =    -12044.38930560
  -exchange      EXHF   =         0.00000000
  -V(xc)+E(xc)   XCENC  =       119.79009374
  PAW double counting   =      2416.54608399    -2500.13549756
  entropy T*S    EENTRO =         0.00000000
  eigenvalues    EBANDS =      -507.64726864
  atomic energy  EATOM  =      4110.95894311
  Solvation  Ediel_sol  =         0.00000000
  ---------------------------------------------------
  free energy    TOTEN  =       -40.42974817 eV

  energy without entropy =      -40.42974817  energy(sigma->0) =      -40.42974817


--------------------------------------------------------------------------------------------------------




--------------------------------------- Iteration      1(   4)  ---------------------------------------


     EDDAV:  cpu time   25.6840: real time   25.7217
 BZINTS: Fermi energy: -2.852108; 65.000000 electrons
         Band energy:-510.492042;  BLOECHL correction: -0.006996
       DOS:  cpu time    0.0080: real time    0.0053
    --------------------------------------------
      LOOP:  cpu time   25.6920: real time   25.7270

 eigenvalue-minimisations  :  1120
 total energy-change (2. order) :-0.2844774E+01  (-0.2820451E+01)
 number of electron      65.0000000 magnetization       7.3200000
 augmentation part       65.0000000 magnetization       7.3200000

 Free energy of the ion-electron system (eV)
  ---------------------------------------------------
  alpha Z        PSCENC =        25.56480543
  Ewald energy   TEWEN  =      8338.88239735
  -Hartree energ DENC   =    -12044.38930560
  -exchange      EXHF   =         0.00000000
  -V(xc)+E(xc)   XCENC  =       119.79009374
  PAW double counting   =      2416.54608399    -2500.13549756
  entropy T*S    EENTRO =         0.00000000
  eigenvalues    EBANDS =      -510.49204241
  atomic energy  EATOM  =      4110.95894311
  Solvation  Ediel_sol  =         0.00000000
  ---------------------------------------------------
  free energy    TOTEN  =       -43.27452194 eV

  energy without entropy =      -43.27452194  energy(sigma->0) =      -43.27452194


--------------------------------------------------------------------------------------------------------




--------------------------------------- Iteration      1(   5)  ---------------------------------------


     EDDAV:  cpu time   30.2560: real time   30.3730
 BZINTS: Fermi energy: -2.852978; 65.000000 electrons
         Band energy:-510.575401;  BLOECHL correction: -0.006934
       DOS:  cpu time    0.0080: real time    0.0057
    CHARGE:  cpu time    2.0960: real time    2.1024
    MIXING:  cpu time    0.0680: real time    0.0669
    --------------------------------------------
      LOOP:  cpu time   32.4280: real time   32.5481

 eigenvalue-minimisations  :  1344
 total energy-change (2. order) :-0.8335821E-01  (-0.8335574E-01)
 number of electron      64.9999994 magnetization       7.5001275
 augmentation part        1.9576269 magnetization       4.2581813

 Broyden mixing:
  rms(total) = 0.45394E+01    rms(broyden)= 0.45393E+01
  rms(prec ) = 0.48121E+01
  weight for this iteration     100.00

 Free energy of the ion-electron system (eV)
  ---------------------------------------------------
  alpha Z        PSCENC =        25.56480543
  Ewald energy   TEWEN  =      8338.88239735
  -Hartree energ DENC   =    -12044.38930560
  -exchange      EXHF   =         0.00000000
  -V(xc)+E(xc)   XCENC  =       119.79009374
  PAW double counting   =      2416.54608399    -2500.13549756
  entropy T*S    EENTRO =         0.00000000
  eigenvalues    EBANDS =      -510.57540063
  atomic energy  EATOM  =      4110.95894311
  Solvation  Ediel_sol  =         0.00000000
  ---------------------------------------------------
  free energy    TOTEN  =       -43.35788016 eV

  energy without entropy =      -43.35788016  energy(sigma->0) =      -43.35788016


--------------------------------------------------------------------------------------------------------




--------------------------------------- Iteration      1(   6)  ---------------------------------------


    POTLOK:  cpu time   52.1560: real time   52.5008
    SETDIJ:  cpu time    0.0360: real time    0.0388
     EDDAV:  cpu time   29.6520: real time   29.8532
 BZINTS: Fermi energy: -4.289011; 65.000000 electrons
         Band energy:-814.832134;  BLOECHL correction: -0.021412
       DOS:  cpu time    0.0080: real time    0.0070
    CHARGE:  cpu time    2.1800: real time    2.1865
    MIXING:  cpu time    0.0440: real time    0.0420
    --------------------------------------------
      LOOP:  cpu time   84.0760: real time   84.6283

 eigenvalue-minimisations  :  1312
 total energy-change (2. order) :-0.6055590E+02  (-0.7759927E+02)
 number of electron      64.9999992 magnetization       7.1501091
 augmentation part       10.9828925 magnetization       7.7881883

 Broyden mixing:
  rms(total) = 0.66835E+01    rms(broyden)= 0.66834E+01
  rms(prec ) = 0.69299E+01
  weight for this iteration     100.00

 eigenvalues of (default mixing * dielectric matrix)
  average eigenvalue GAMMA=   0.3769
  0.3769

 Free energy of the ion-electron system (eV)
  ---------------------------------------------------
  alpha Z        PSCENC =        25.56480543
  Ewald energy   TEWEN  =      8338.88239735
  -Hartree energ DENC   =    -11838.78626494
  -exchange      EXHF   =         0.00000000
  -V(xc)+E(xc)   XCENC  =       121.99073968
  PAW double counting   =      2059.13482191    -2106.82709291
  entropy T*S    EENTRO =         0.00000000
  eigenvalues    EBANDS =      -814.83213389
  atomic energy  EATOM  =      4110.95894311
  Solvation  Ediel_sol  =         0.00000000
  ---------------------------------------------------
  free energy    TOTEN  =      -103.91378425 eV

  energy without entropy =     -103.91378425  energy(sigma->0) =     -103.91378425


--------------------------------------------------------------------------------------------------------




--------------------------------------- Iteration      1(   7)  ---------------------------------------


    POTLOK:  cpu time   52.2600: real time   52.3258
    SETDIJ:  cpu time    0.0560: real time    0.0573
     EDDAV:  cpu time   25.5400: real time   25.7032
 BZINTS: Fermi energy: -4.679627; 65.000000 electrons
         Band energy:-637.444476;  BLOECHL correction: -0.018901
       DOS:  cpu time    0.0040: real time    0.0068
    CHARGE:  cpu time    2.1200: real time    2.1226
    MIXING:  cpu time    0.0400: real time    0.0407
    --------------------------------------------
      LOOP:  cpu time   80.0200: real time   80.2563

 eigenvalue-minimisations  :  1120
 total energy-change (2. order) : 0.5076389E+02  (-0.7305083E+01)
 number of electron      64.9999992 magnetization       6.9856959
 augmentation part       10.0679638 magnetization       5.3489425

 Broyden mixing:
  rms(total) = 0.35101E+01    rms(broyden)= 0.35101E+01
  rms(prec ) = 0.37168E+01
  weight for this iteration     100.00

 eigenvalues of (default mixing * dielectric matrix)
  average eigenvalue GAMMA=   0.4554
  0.4554  0.4554

 Free energy of the ion-electron system (eV)
  ---------------------------------------------------
  alpha Z        PSCENC =        25.56480543
  Ewald energy   TEWEN  =      8338.88239735
  -Hartree energ DENC   =    -11932.99120957
  -exchange      EXHF   =         0.00000000
  -V(xc)+E(xc)   XCENC  =       118.14459391
  PAW double counting   =      2233.15413554    -2309.41908742
  entropy T*S    EENTRO =         0.00000000
  eigenvalues    EBANDS =      -637.44447593
  atomic energy  EATOM  =      4110.95894311
  Solvation  Ediel_sol  =         0.00000000
  ---------------------------------------------------
  free energy    TOTEN  =       -53.14989758 eV

  energy without entropy =      -53.14989758  energy(sigma->0) =      -53.14989758


--------------------------------------------------------------------------------------------------------




--------------------------------------- Iteration      1(   8)  ---------------------------------------


    POTLOK:  cpu time   51.7600: real time   51.9858
    SETDIJ:  cpu time    0.0360: real time    0.0364
     EDDAV:  cpu time   27.0880: real time   27.7715
 BZINTS: Fermi energy: -4.731865; 65.000000 electrons
         Band energy:-572.055901;  BLOECHL correction: -0.012799
       DOS:  cpu time    0.0080: real time    0.0065
    CHARGE:  cpu time    2.1360: real time    2.1382
    MIXING:  cpu time    0.0400: real time    0.0413
    --------------------------------------------
      LOOP:  cpu time   81.0680: real time   81.9798

 eigenvalue-minimisations  :  1216
 total energy-change (2. order) : 0.1395368E+02  (-0.1610209E+01)
 number of electron      64.9999992 magnetization       6.8354479
 augmentation part        9.0029910 magnetization       4.2586313

 Broyden mixing:
  rms(total) = 0.23199E+01    rms(broyden)= 0.23199E+01
  rms(prec ) = 0.24499E+01
  weight for this iteration     100.00

 eigenvalues of (default mixing * dielectric matrix)
  average eigenvalue GAMMA=   0.5075
  0.5573  0.5573  0.4081

 Free energy of the ion-electron system (eV)
  ---------------------------------------------------
  alpha Z        PSCENC =        25.56480543
  Ewald energy   TEWEN  =      8338.88239735
  -Hartree energ DENC   =    -11977.04358507
  -exchange      EXHF   =         0.00000000
  -V(xc)+E(xc)   XCENC  =       118.88116211
  PAW double counting   =      2307.74389323    -2392.12793108
  entropy T*S    EENTRO =         0.00000000
  eigenvalues    EBANDS =      -572.05590115
  atomic energy  EATOM  =      4110.95894311
  Solvation  Ediel_sol  =         0.00000000
  ---------------------------------------------------
  free energy    TOTEN  =       -39.19621606 eV

  energy without entropy =      -39.19621606  energy(sigma->0) =      -39.19621606


--------------------------------------------------------------------------------------------------------




--------------------------------------- Iteration      1(   9)  ---------------------------------------


    POTLOK:  cpu time   50.6040: real time   52.0026
    SETDIJ:  cpu time    0.0360: real time    0.0384
     EDDAV:  cpu time   32.6400: real time   33.1503
 BZINTS: Fermi energy: -4.573733; 65.000000 electrons
         Band energy:-537.711762;  BLOECHL correction: -0.011167
       DOS:  cpu time    0.0040: real time    0.0048
    CHARGE:  cpu time    2.1240: real time    2.1258
    MIXING:  cpu time    0.0440: real time    0.0442
    --------------------------------------------
      LOOP:  cpu time   85.4520: real time   87.3661

 eigenvalue-minimisations  :  1472
 total energy-change (2. order) : 0.3388335E+01  (-0.8160911E+00)
 number of electron      64.9999991 magnetization       6.8291024
 augmentation part        7.1475302 magnetization       5.2781847

 Broyden mixing:
  rms(total) = 0.77379E+00    rms(broyden)= 0.77153E+00
  rms(prec ) = 0.79706E+00
  weight for this iteration     100.00

 eigenvalues of (default mixing * dielectric matrix)
  average eigenvalue GAMMA=   0.3905
  0.5551  0.5551  0.3987  0.0532

 Free energy of the ion-electron system (eV)
  ---------------------------------------------------
  alpha Z        PSCENC =        25.56480543
  Ewald energy   TEWEN  =      8338.88239735
  -Hartree energ DENC   =    -12007.03275860
  -exchange      EXHF   =         0.00000000
  -V(xc)+E(xc)   XCENC  =       119.40802550
  PAW double counting   =      2362.12990316    -2448.00743492
  entropy T*S    EENTRO =         0.00000000
  eigenvalues    EBANDS =      -537.71176209
  atomic energy  EATOM  =      4110.95894311
  Solvation  Ediel_sol  =         0.00000000
  ---------------------------------------------------
  free energy    TOTEN  =       -35.80788105 eV

  energy without entropy =      -35.80788105  energy(sigma->0) =      -35.80788105


--------------------------------------------------------------------------------------------------------




--------------------------------------- Iteration      1(  10)  ---------------------------------------


    POTLOK:  cpu time   51.0520: real time   51.6257
    SETDIJ:  cpu time    0.0360: real time    0.0370
     EDDAV:  cpu time   23.9840: real time   24.2893
 BZINTS: Fermi energy: -4.611015; 65.000000 electrons
         Band energy:-537.143071;  BLOECHL correction: -0.011243
       DOS:  cpu time    0.0040: real time    0.0061
    CHARGE:  cpu time    2.1400: real time    2.1460
    MIXING:  cpu time    0.0440: real time    0.0425
    --------------------------------------------
      LOOP:  cpu time   77.2600: real time   78.1466

 eigenvalue-minimisations  :  1056
 total energy-change (2. order) : 0.7320260E+00  (-0.1933548E+02)
 number of electron      64.9999991 magnetization       6.8295258
 augmentation part        7.1748484 magnetization       5.2398098

 Broyden mixing:
  rms(total) = 0.69747E+00    rms(broyden)= 0.69631E+00
  rms(prec ) = 0.72081E+00
  weight for this iteration     100.00

 eigenvalues of (default mixing * dielectric matrix)
  average eigenvalue GAMMA=   0.3335
  0.5550  0.5550  0.3651  0.1723  0.0199

 Free energy of the ion-electron system (eV)
  ---------------------------------------------------
  alpha Z        PSCENC =        25.56480543
  Ewald energy   TEWEN  =      8338.88239735
  -Hartree energ DENC   =    -12006.87630322
  -exchange      EXHF   =         0.00000000
  -V(xc)+E(xc)   XCENC  =       119.44215580
  PAW double counting   =      2362.01737471    -2447.92215709
  entropy T*S    EENTRO =         0.00000000
  eigenvalues    EBANDS =      -537.14307115
  atomic energy  EATOM  =      4110.95894311
  Solvation  Ediel_sol  =         0.00000000
  ---------------------------------------------------
  free energy    TOTEN  =       -35.07585505 eV

  energy without entropy =      -35.07585505  energy(sigma->0) =      -35.07585505


--------------------------------------------------------------------------------------------------------




--------------------------------------- Iteration      1(  11)  ---------------------------------------


    POTLOK:  cpu time   51.2720: real time   51.4903
    SETDIJ:  cpu time    0.0400: real time    0.0372
     EDDAV:  cpu time   29.1960: real time   29.2161
 BZINTS: Fermi energy: -4.611835; 65.000000 electrons
         Band energy:-537.484405;  BLOECHL correction: -0.011250
       DOS:  cpu time    0.0040: real time    0.0069
    CHARGE:  cpu time    2.1280: real time    2.1295
    MIXING:  cpu time    0.0640: real time    0.0635
    --------------------------------------------
      LOOP:  cpu time   82.7040: real time   82.9435

 eigenvalue-minimisations  :  1296
 total energy-change (2. order) :-0.3521664E+00  (-0.3309097E+00)
 number of electron      64.9999991 magnetization       6.8296080
 augmentation part        7.1493734 magnetization       5.2623943

 Broyden mixing:
  rms(total) = 0.68535E+00    rms(broyden)= 0.68530E+00
  rms(prec ) = 0.70820E+00
  weight for this iteration     100.00

 eigenvalues of (default mixing * dielectric matrix)
  average eigenvalue GAMMA=   0.2801
  0.5442  0.5442  0.3136  0.2484  0.0150  0.0150

 Free energy of the ion-electron system (eV)
  ---------------------------------------------------
  alpha Z        PSCENC =        25.56480543
  Ewald energy   TEWEN  =      8338.88239735
  -Hartree energ DENC   =    -12006.86921160
  -exchange      EXHF   =         0.00000000
  -V(xc)+E(xc)   XCENC  =       119.41267593
  PAW double counting   =      2362.00554837    -2447.89877534
  entropy T*S    EENTRO =         0.00000000
  eigenvalues    EBANDS =      -537.48440468
  atomic energy  EATOM  =      4110.95894311
  Solvation  Ediel_sol  =         0.00000000
  ---------------------------------------------------
  free energy    TOTEN  =       -35.42802143 eV

  energy without entropy =      -35.42802143  energy(sigma->0) =      -35.42802143


--------------------------------------------------------------------------------------------------------




--------------------------------------- Iteration      1(  12)  ---------------------------------------


    POTLOK:  cpu time   51.8120: real time   51.8250
    SETDIJ:  cpu time    0.0440: real time    0.0433
     EDDAV:  cpu time   28.8880: real time   29.0214
 BZINTS: Fermi energy: -4.620417; 65.000000 electrons
         Band energy:-537.924515;  BLOECHL correction: -0.011221
       DOS:  cpu time    0.0080: real time    0.0070
    CHARGE:  cpu time    2.1240: real time    2.1255
    MIXING:  cpu time    0.0440: real time    0.0453
    --------------------------------------------
      LOOP:  cpu time   82.9200: real time   83.0675

 eigenvalue-minimisations  :  1280
 total energy-change (2. order) :-0.1164949E-01  (-0.8017970E-02)
 number of electron      64.9999991 magnetization       6.8284684
 augmentation part        7.1575513 magnetization       5.2571798

 Broyden mixing:
  rms(total) = 0.69245E+00    rms(broyden)= 0.69245E+00
  rms(prec ) = 0.71550E+00
  weight for this iteration     100.00

 eigenvalues of (default mixing * dielectric matrix)
  average eigenvalue GAMMA=   0.2473
  0.5435  0.5435  0.3140  0.2462  0.0316  0.0316  0.0212

 Free energy of the ion-electron system (eV)
  ---------------------------------------------------
  alpha Z        PSCENC =        25.56480543
  Ewald energy   TEWEN  =      8338.88239735
  -Hartree energ DENC   =    -12006.48068284
  -exchange      EXHF   =         0.00000000
  -V(xc)+E(xc)   XCENC  =       119.38621133
  PAW double counting   =      2361.05083596    -2446.87766665
  entropy T*S    EENTRO =         0.00000000
  eigenvalues    EBANDS =      -537.92451463
  atomic energy  EATOM  =      4110.95894311
  Solvation  Ediel_sol  =         0.00000000
  ---------------------------------------------------
  free energy    TOTEN  =       -35.43967092 eV

  energy without entropy =      -35.43967092  energy(sigma->0) =      -35.43967092


--------------------------------------------------------------------------------------------------------




--------------------------------------- Iteration      1(  13)  ---------------------------------------


    POTLOK:  cpu time   51.0240: real time   51.0640
    SETDIJ:  cpu time    0.0360: real time    0.0373
     EDDAV:  cpu time   27.1560: real time   27.3488
 BZINTS: Fermi energy: -4.622149; 65.000000 electrons
         Band energy:-537.965345;  BLOECHL correction: -0.011238
       DOS:  cpu time    0.0080: real time    0.0049
    CHARGE:  cpu time    2.1160: real time    2.1218
    MIXING:  cpu time    0.0440: real time    0.0449
    --------------------------------------------
      LOOP:  cpu time   80.3840: real time   80.6218

 eigenvalue-minimisations  :  1200
 total energy-change (2. order) : 0.4694718E-02  (-0.1781560E-02)
 number of electron      64.9999991 magnetization       6.8284253
 augmentation part        7.1509670 magnetization       5.2606673

 Broyden mixing:
  rms(total) = 0.68812E+00    rms(broyden)= 0.68812E+00
  rms(prec ) = 0.71066E+00
  weight for this iteration     100.00

 eigenvalues of (default mixing * dielectric matrix)
  average eigenvalue GAMMA=   0.2493
  0.5463  0.5463  0.2879  0.2879  0.1378  0.0831  0.0831  0.0223

 Free energy of the ion-electron system (eV)
  ---------------------------------------------------
  alpha Z        PSCENC =        25.56480543
  Ewald energy   TEWEN  =      8338.88239735
  -Hartree energ DENC   =    -12006.44991888
  -exchange      EXHF   =         0.00000000
  -V(xc)+E(xc)   XCENC  =       119.37867692
  PAW double counting   =      2360.88518227    -2446.68971779
  entropy T*S    EENTRO =         0.00000000
  eigenvalues    EBANDS =      -537.96534463
  atomic energy  EATOM  =      4110.95894311
  Solvation  Ediel_sol  =         0.00000000
  ---------------------------------------------------
  free energy    TOTEN  =       -35.43497621 eV

  energy without entropy =      -35.43497621  energy(sigma->0) =      -35.43497621


--------------------------------------------------------------------------------------------------------




--------------------------------------- Iteration      1(  14)  ---------------------------------------


    POTLOK:  cpu time   50.8960: real time   51.6240
    SETDIJ:  cpu time    0.0360: real time    0.0363
     EDDAV:  cpu time   26.0480: real time   26.1079
 BZINTS: Fermi energy: -4.622290; 65.000000 electrons
         Band energy:-537.964229;  BLOECHL correction: -0.011236
       DOS:  cpu time    0.0040: real time    0.0069
    CHARGE:  cpu time    2.1200: real time    2.1207
    MIXING:  cpu time    0.0440: real time    0.0453
    --------------------------------------------
      LOOP:  cpu time   79.1480: real time   79.9411

 eigenvalue-minimisations  :  1152
 total energy-change (2. order) : 0.2187404E-03  (-0.1297460E-02)
 number of electron      64.9999991 magnetization       6.8289425
 augmentation part        7.1505316 magnetization       5.2616191

 Broyden mixing:
  rms(total) = 0.68781E+00    rms(broyden)= 0.68781E+00
  rms(prec ) = 0.71034E+00
  weight for this iteration     100.00

 eigenvalues of (default mixing * dielectric matrix)
  average eigenvalue GAMMA=   0.2292
  0.5468  0.5468  0.2869  0.2869  0.1658  0.0912  0.0912  0.0225  0.0251

 Free energy of the ion-electron system (eV)
  ---------------------------------------------------
  alpha Z        PSCENC =        25.56480543
  Ewald energy   TEWEN  =      8338.88239735
  -Hartree energ DENC   =    -12006.45086334
  -exchange      EXHF   =         0.00000000
  -V(xc)+E(xc)   XCENC  =       119.37845402
  PAW double counting   =      2360.88359656    -2446.68786170
  entropy T*S    EENTRO =         0.00000000
  eigenvalues    EBANDS =      -537.96422889
  atomic energy  EATOM  =      4110.95894311
  Solvation  Ediel_sol  =         0.00000000
  ---------------------------------------------------
  free energy    TOTEN  =       -35.43475747 eV

  energy without entropy =      -35.43475747  energy(sigma->0) =      -35.43475747


--------------------------------------------------------------------------------------------------------




--------------------------------------- Iteration      1(  15)  ---------------------------------------


    POTLOK:  cpu time   50.7800: real time   50.8275
    SETDIJ:  cpu time    0.0400: real time    0.0367
     EDDAV:  cpu time   27.6520: real time   27.7635
 BZINTS: Fermi energy: -4.622549; 65.000000 electrons
         Band energy:-537.978310;  BLOECHL correction: -0.011241
       DOS:  cpu time    0.0040: real time    0.0065
    CHARGE:  cpu time    2.1760: real time    2.1780
    MIXING:  cpu time    0.0480: real time    0.0464
    --------------------------------------------
      LOOP:  cpu time   80.7000: real time   80.8585

 eigenvalue-minimisations  :  1232
 total energy-change (2. order) : 0.6092763E-03  (-0.2182599E-02)
 number of electron      64.9999991 magnetization       6.8265972
 augmentation part        7.1521838 magnetization       5.2581939

 Broyden mixing:
  rms(total) = 0.68872E+00    rms(broyden)= 0.68872E+00
  rms(prec ) = 0.71138E+00
  weight for this iteration     100.00

 eigenvalues of (default mixing * dielectric matrix)
  average eigenvalue GAMMA=   0.3147
  0.5718  0.5718  0.4627  0.4627  0.3289  0.3289  0.2027  0.1316  0.0631  0.0223

 Free energy of the ion-electron system (eV)
  ---------------------------------------------------
  alpha Z        PSCENC =        25.56480543
  Ewald energy   TEWEN  =      8338.88239735
  -Hartree energ DENC   =    -12006.43184132
  -exchange      EXHF   =         0.00000000
  -V(xc)+E(xc)   XCENC  =       119.37853921
  PAW double counting   =      2360.87431762    -2446.68299951
  entropy T*S    EENTRO =         0.00000000
  eigenvalues    EBANDS =      -537.97831008
  atomic energy  EATOM  =      4110.95894311
  Solvation  Ediel_sol  =         0.00000000
  ---------------------------------------------------
  free energy    TOTEN  =       -35.43414819 eV

  energy without entropy =      -35.43414819  energy(sigma->0) =      -35.43414819


--------------------------------------------------------------------------------------------------------




--------------------------------------- Iteration      1(  16)  ---------------------------------------


    POTLOK:  cpu time   50.8320: real time   50.8500
    SETDIJ:  cpu time    0.0360: real time    0.0379
     EDDAV:  cpu time   26.3520: real time   26.3928
 BZINTS: Fermi energy: -4.610434; 65.000000 electrons
         Band energy:-537.808910;  BLOECHL correction: -0.011324
       DOS:  cpu time    0.0040: real time    0.0069
    CHARGE:  cpu time    2.0880: real time    2.1575
    MIXING:  cpu time    0.0400: real time    0.0476
    --------------------------------------------
      LOOP:  cpu time   79.3520: real time   79.4926

 eigenvalue-minimisations  :  1168
 total energy-change (2. order) :-0.2851499E-01  (-0.1767785E-01)
 number of electron      64.9999991 magnetization       6.8158513
 augmentation part        7.2205827 magnetization       5.2136882

 Broyden mixing:
  rms(total) = 0.73601E+00    rms(broyden)= 0.73601E+00
  rms(prec ) = 0.76367E+00
  weight for this iteration     100.00

 eigenvalues of (default mixing * dielectric matrix)
  average eigenvalue GAMMA=   0.3677
  0.6939  0.6939  0.5977  0.5977  0.3470  0.3470  0.3262  0.2352  0.1203  0.0639
  0.0223

 Free energy of the ion-electron system (eV)
  ---------------------------------------------------
  alpha Z        PSCENC =        25.56480543
  Ewald energy   TEWEN  =      8338.88239735
  -Hartree energ DENC   =    -12006.57056125
  -exchange      EXHF   =         0.00000000
  -V(xc)+E(xc)   XCENC  =       119.42560864
  PAW double counting   =      2361.31797069    -2447.23291732
  entropy T*S    EENTRO =         0.00000000
  eigenvalues    EBANDS =      -537.80890984
  atomic energy  EATOM  =      4110.95894311
  Solvation  Ediel_sol  =         0.00000000
  ---------------------------------------------------
  free energy    TOTEN  =       -35.46266318 eV

  energy without entropy =      -35.46266318  energy(sigma->0) =      -35.46266318


--------------------------------------------------------------------------------------------------------




--------------------------------------- Iteration      1(  17)  ---------------------------------------


    POTLOK:  cpu time   50.7320: real time   50.8173
    SETDIJ:  cpu time    0.0400: real time    0.0377
     EDDAV:  cpu time   26.6880: real time   26.9742
 BZINTS: Fermi energy: -4.583787; 65.000000 electrons
         Band energy:-536.902999;  BLOECHL correction: -0.011013
       DOS:  cpu time    0.0040: real time    0.0063
    CHARGE:  cpu time    2.1080: real time    2.1141
    MIXING:  cpu time    0.0680: real time    0.0690
    --------------------------------------------
      LOOP:  cpu time   79.6400: real time   80.0185

 eigenvalue-minimisations  :  1200
 total energy-change (2. order) : 0.1663025E-01  (-0.7287594E-02)
 number of electron      64.9999991 magnetization       6.7069199
 augmentation part        7.2283095 magnetization       5.1085924

 Broyden mixing:
  rms(total) = 0.75329E+00    rms(broyden)= 0.75329E+00
  rms(prec ) = 0.78294E+00
  weight for this iteration     100.00

 eigenvalues of (default mixing * dielectric matrix)
  average eigenvalue GAMMA=   0.5591
  1.3873  1.3873  0.7726  0.7726  0.5414  0.5414  0.4369  0.4369  0.2246  0.1217
  0.0638  0.0223

 Free energy of the ion-electron system (eV)
  ---------------------------------------------------
  alpha Z        PSCENC =        25.56480543
  Ewald energy   TEWEN  =      8338.88239735
  -Hartree energ DENC   =    -12007.52551412
  -exchange      EXHF   =         0.00000000
  -V(xc)+E(xc)   XCENC  =       119.48962294
  PAW double counting   =      2362.83237408    -2448.74566292
  entropy T*S    EENTRO =         0.00000000
  eigenvalues    EBANDS =      -536.90299880
  atomic energy  EATOM  =      4110.95894311
  Solvation  Ediel_sol  =         0.00000000
  ---------------------------------------------------
  free energy    TOTEN  =       -35.44603293 eV

  energy without entropy =      -35.44603293  energy(sigma->0) =      -35.44603293


--------------------------------------------------------------------------------------------------------




--------------------------------------- Iteration      1(  18)  ---------------------------------------


    POTLOK:  cpu time   50.7320: real time   50.9686
    SETDIJ:  cpu time    0.0400: real time    0.0375
     EDDAV:  cpu time   30.0680: real time   30.2725
 BZINTS: Fermi energy: -4.114666; 65.000000 electrons
         Band energy:-529.206516;  BLOECHL correction: -0.007565
       DOS:  cpu time    0.0040: real time    0.0068
    CHARGE:  cpu time    2.1400: real time    2.1414
    MIXING:  cpu time    0.0520: real time    0.0498
    --------------------------------------------
      LOOP:  cpu time   83.0360: real time   83.4766

 eigenvalue-minimisations  :  1360
 total energy-change (2. order) : 0.1035075E+00  (-0.2244750E+00)
 number of electron      64.9999993 magnetization       6.7049922
 augmentation part        5.8460154 magnetization       4.2902742

 Broyden mixing:
  rms(total) = 0.20570E+01    rms(broyden)= 0.20566E+01
  rms(prec ) = 0.22054E+01
  weight for this iteration     100.00

 eigenvalues of (default mixing * dielectric matrix)
  average eigenvalue GAMMA=   0.5146
  1.3701  1.3701  0.7715  0.7715  0.5400  0.5400  0.4363  0.4363  0.2246  0.1218
  0.0638  0.0223  0.0216

 Free energy of the ion-electron system (eV)
  ---------------------------------------------------
  alpha Z        PSCENC =        25.56480543
  Ewald energy   TEWEN  =      8338.88239735
  -Hartree energ DENC   =    -12016.01463407
  -exchange      EXHF   =         0.00000000
  -V(xc)+E(xc)   XCENC  =       120.05074573
  PAW double counting   =      2371.99579938    -2457.57406619
  entropy T*S    EENTRO =         0.00000000
  eigenvalues    EBANDS =      -529.20651618
  atomic energy  EATOM  =      4110.95894311
  Solvation  Ediel_sol  =         0.00000000
  ---------------------------------------------------
  free energy    TOTEN  =       -35.34252543 eV

  energy without entropy =      -35.34252543  energy(sigma->0) =      -35.34252543


--------------------------------------------------------------------------------------------------------




--------------------------------------- Iteration      1(  19)  ---------------------------------------


    POTLOK:  cpu time   50.6520: real time   50.8313
    SETDIJ:  cpu time    0.0520: real time    0.0536
     EDDAV:  cpu time   24.0000: real time   24.0842
 BZINTS: Fermi energy: -4.167722; 64.999821 electrons
         Band energy:-529.523193;  BLOECHL correction: -0.000251
       DOS:  cpu time    0.0080: real time    0.0086
    CHARGE:  cpu time    2.1400: real time    2.1692
    MIXING:  cpu time    0.0480: real time    0.0504
    --------------------------------------------
      LOOP:  cpu time   76.9000: real time   77.1974

 eigenvalue-minimisations  :  1056
 total energy-change (2. order) : 0.4248263E-01  (-0.3466254E-01)
 number of electron      64.9998203 magnetization       6.7032540
 augmentation part        6.0473921 magnetization       4.3246370

 Broyden mixing:
  rms(total) = 0.15765E+01    rms(broyden)= 0.15764E+01
  rms(prec ) = 0.16982E+01
  weight for this iteration     100.00

 eigenvalues of (default mixing * dielectric matrix)
  average eigenvalue GAMMA=   0.4884
  1.3777  1.3777  0.7696  0.7696  0.5394  0.5394  0.4342  0.4342  0.2246  0.1217
  0.0638  0.0223  0.0813  0.0813

 Free energy of the ion-electron system (eV)
  ---------------------------------------------------
  alpha Z        PSCENC =        25.56480543
  Ewald energy   TEWEN  =      8338.88239735
  -Hartree energ DENC   =    -12015.61537215
  -exchange      EXHF   =         0.00000000
  -V(xc)+E(xc)   XCENC  =       119.99392457
  PAW double counting   =      2371.54564778    -2457.10719617
  entropy T*S    EENTRO =         0.00000000
  eigenvalues    EBANDS =      -529.52319272
  atomic energy  EATOM  =      4110.95894311
  Solvation  Ediel_sol  =         0.00000000
  ---------------------------------------------------
  free energy    TOTEN  =       -35.30004280 eV

  energy without entropy =      -35.30004280  energy(sigma->0) =      -35.30004280


--------------------------------------------------------------------------------------------------------




--------------------------------------- Iteration      1(  20)  ---------------------------------------


    POTLOK:  cpu time   50.7880: real time   51.0210
    SETDIJ:  cpu time    0.0400: real time    0.0384
     EDDAV:  cpu time   24.1240: real time   24.1498
 BZINTS: Fermi energy: -4.222283; 65.027549 electrons
         Band energy:-530.918583;  BLOECHL correction: -0.000796
       DOS:  cpu time    0.0080: real time    0.0067
    CHARGE:  cpu time    2.1400: real time    2.1425
    MIXING:  cpu time    0.0520: real time    0.0518
    --------------------------------------------
      LOOP:  cpu time   77.1520: real time   77.4103

 eigenvalue-minimisations  :  1056
 total energy-change (2. order) :-0.4087298E-02  (-0.2764654E-01)
 number of electron      65.0275478 magnetization       6.6938952
 augmentation part        6.2962702 magnetization       4.1666395

 Broyden mixing:
  rms(total) = 0.11972E+01    rms(broyden)= 0.11970E+01
  rms(prec ) = 0.12899E+01
  weight for this iteration     100.00

 eigenvalues of (default mixing * dielectric matrix)
  average eigenvalue GAMMA=   0.4841
  1.3947  1.3947  0.7670  0.7670  0.5426  0.5426  0.4254  0.4254  0.1824  0.2253
  0.1934  0.1934  0.1217  0.0638  0.0223

 Free energy of the ion-electron system (eV)
  ---------------------------------------------------
  alpha Z        PSCENC =        25.56480543
  Ewald energy   TEWEN  =      8338.88239735
  -Hartree energ DENC   =    -12014.31133884
  -exchange      EXHF   =         0.00000000
  -V(xc)+E(xc)   XCENC  =       119.95588244
  PAW double counting   =      2368.63456073    -2454.07079709
  entropy T*S    EENTRO =         0.00000000
  eigenvalues    EBANDS =      -530.91858323
  atomic energy  EATOM  =      4110.95894311
  Solvation  Ediel_sol  =         0.00000000
  ---------------------------------------------------
  free energy    TOTEN  =       -35.30413009 eV

  energy without entropy =      -35.30413009  energy(sigma->0) =      -35.30413009


--------------------------------------------------------------------------------------------------------




--------------------------------------- Iteration      1(  21)  ---------------------------------------


    POTLOK:  cpu time   50.8240: real time   50.9134
    SETDIJ:  cpu time    0.0360: real time    0.0380
     EDDAV:  cpu time   28.0280: real time   28.0606
 BZINTS: Fermi energy: -4.317260; 65.000000 electrons
         Band energy:-532.498662;  BLOECHL correction: -0.012640
       DOS:  cpu time    0.0040: real time    0.0070
    CHARGE:  cpu time    2.1200: real time    2.1413
    MIXING:  cpu time    0.0520: real time    0.0536
    --------------------------------------------
      LOOP:  cpu time   81.0640: real time   81.2140

 eigenvalue-minimisations  :  1248
 total energy-change (2. order) : 0.2718995E+00  (-0.1741682E-01)
 number of electron      64.9999992 magnetization       6.4909743
 augmentation part        6.8417005 magnetization       4.6053758

 Broyden mixing:
  rms(total) = 0.81880E+00    rms(broyden)= 0.81857E+00
  rms(prec ) = 0.87478E+00
  weight for this iteration     100.00

 eigenvalues of (default mixing * dielectric matrix)
  average eigenvalue GAMMA=   0.5581
  1.6186  1.6186  0.8954  0.8954  0.7064  0.7064  0.4660  0.4520  0.4520  0.2477
  0.2248  0.2194  0.2194  0.1217  0.0638  0.0223

 Free energy of the ion-electron system (eV)
  ---------------------------------------------------
  alpha Z        PSCENC =        25.56480543
  Ewald energy   TEWEN  =      8338.88239735
  -Hartree energ DENC   =    -12012.49485163
  -exchange      EXHF   =         0.00000000
  -V(xc)+E(xc)   XCENC  =       120.00432915
  PAW double counting   =      2365.71972448    -2451.16891624
  entropy T*S    EENTRO =         0.00000000
  eigenvalues    EBANDS =      -532.49866222
  atomic energy  EATOM  =      4110.95894311
  Solvation  Ediel_sol  =         0.00000000
  ---------------------------------------------------
  free energy    TOTEN  =       -35.03223056 eV

  energy without entropy =      -35.03223056  energy(sigma->0) =      -35.03223056


--------------------------------------------------------------------------------------------------------




--------------------------------------- Iteration      1(  22)  ---------------------------------------


    POTLOK:  cpu time   50.9080: real time   50.9360
    SETDIJ:  cpu time    0.0360: real time    0.0380
     EDDAV:  cpu time   28.7720: real time   28.8821
 BZINTS: Fermi energy: -4.056341; 65.000000 electrons
         Band energy:-527.641103;  BLOECHL correction: -0.002344
       DOS:  cpu time    0.0040: real time    0.0067
    CHARGE:  cpu time    2.1080: real time    2.1151
    MIXING:  cpu time    0.0800: real time    0.0803
    --------------------------------------------
      LOOP:  cpu time   81.9080: real time   82.0581

 eigenvalue-minimisations  :  1296
 total energy-change (2. order) : 0.5698867E+00  (-0.1600594E+00)
 number of electron      64.9999991 magnetization       6.4536632
 augmentation part        5.6813309 magnetization       4.0656981

 Broyden mixing:
  rms(total) = 0.12339E+01    rms(broyden)= 0.12337E+01
  rms(prec ) = 0.13142E+01
  weight for this iteration     100.00

 eigenvalues of (default mixing * dielectric matrix)
  average eigenvalue GAMMA=   0.5454
  1.6634  1.6634  0.9207  0.9207  0.7078  0.7078  0.4479  0.4479  0.4485  0.2588
  0.2579  0.2275  0.1962  0.1962  0.1217  0.0223  0.0638

 Free energy of the ion-electron system (eV)
  ---------------------------------------------------
  alpha Z        PSCENC =        25.56480543
  Ewald energy   TEWEN  =      8338.88239735
  -Hartree energ DENC   =    -12017.11305047
  -exchange      EXHF   =         0.00000000
  -V(xc)+E(xc)   XCENC  =       120.21885840
  PAW double counting   =      2366.85935505    -2452.19254928
  entropy T*S    EENTRO =         0.00000000
  eigenvalues    EBANDS =      -527.64110348
  atomic energy  EATOM  =      4110.95894311
  Solvation  Ediel_sol  =         0.00000000
  ---------------------------------------------------
  free energy    TOTEN  =       -34.46234389 eV

  energy without entropy =      -34.46234389  energy(sigma->0) =      -34.46234389


[...]
     34      -2.1489      0.00000
     35      -1.9748      0.00000
     36      -0.2124      0.00000
     37       0.6864      0.00000
     38       0.9334      0.00000
     39       1.2156      0.00000
     40       1.7336      0.00000
     41       2.1404      0.00000
     42       2.1550      0.00000
     43       2.5906      0.00000
     44       2.8416      0.00000
     45       2.9072      0.00000
     46       3.3432      0.00000
     47       3.5933      0.00000
     48       3.8187      0.00000

 k-point     5 :      -0.4000    0.2000    0.0000
  band No.  band energies     occupation 
      1     -18.0134      1.00000
      2     -16.3892      1.00000
      3     -16.1900      1.00000
      4     -16.0349      1.00000
      5     -15.6496      1.00000
      6     -15.4485      1.00000
      7     -11.8898      1.00000
      8      -9.9749      1.00000
      9      -8.7434      1.00000
     10      -8.2938      1.00000
     11      -8.0861      1.00000
     12      -7.5706      1.00000
     13      -7.3730      1.00000
     14      -6.7439      1.00000
     15      -6.5413      1.00000
     16      -6.2353      1.00000
     17      -6.1839      1.00000
     18      -6.0714      1.00000
     19      -5.8016      1.00000
     20      -5.6882      1.00000
     21      -5.5086      1.00000
     22      -4.9136      1.00000
     23      -4.7975      1.00000
     24      -4.6576      1.00000
     25      -4.5442      1.00000
     26      -4.3428      1.00000
     27      -4.2923      1.00000
     28      -4.1259      1.00000
     29      -3.8715      1.00000
     30      -3.8187      1.00000
     31      -3.7076      1.00000
     32      -2.8468      1.00000
     33      -2.7210      0.87988
     34      -2.1142      0.00000
     35      -1.8753      0.00000
     36      -0.5163      0.00000
     37       0.4901      0.00000
     38       0.5593      0.00000
     39       0.9791      0.00000
     40       1.5530      0.00000
     41       1.8044      0.00000
     42       1.9955      0.00000
     43       2.9677      0.00000
     44       3.1469      0.00000
     45       3.2867      0.00000
     46       3.3397      0.00000
     47       3.5111      0.00000
     48       4.0318      0.00000


--------------------------------------------------------------------------------------------------------


 soft charge-density along one line, spin component           1
         0         1         2         3         4         5         6         7         8         9
 total charge-density along one line

 soft charge-density along one line, spin component           2
         0         1         2         3         4         5         6         7         8         9
 total charge-density along one line

 pseudopotential strength for first ion, spin component:           1
-10.808  -0.164  -0.000   0.007  -0.000   1.492   0.068   0.000
 -0.164 -10.992   0.000  -0.000   0.007   0.068   1.568  -0.000
 -0.000   0.000 -10.722   0.000   0.000   0.000  -0.000   1.456
  0.007  -0.000   0.000 -10.992   0.164  -0.003   0.000  -0.000
 -0.000   0.007   0.000   0.164 -10.808   0.000  -0.003  -0.000
  1.492   0.068   0.000  -0.003   0.000   0.694  -0.029  -0.000
  0.068   1.568  -0.000   0.000  -0.003  -0.029   0.663   0.000
  0.000  -0.000   1.456  -0.000  -0.000  -0.000   0.000   0.710
 -0.003   0.000  -0.000   1.568  -0.068   0.001  -0.000   0.000
  0.000  -0.003  -0.000  -0.068   1.492  -0.000   0.001   0.000
  0.000  -0.000   0.007  -0.000   0.000  -0.000  -0.000  -0.002
 -0.000   0.000  -0.001   0.000  -0.000   0.000  -0.000   0.000
 -0.001  -0.001   0.000  -0.000   0.001   0.000   0.000  -0.000
 -0.000  -0.000   0.001  -0.000   0.000  -0.000   0.000  -0.000
  0.001  -0.000   0.000  -0.001   0.001  -0.000  -0.000  -0.000
  0.000  -0.001  -0.000   0.000  -0.001  -0.000   0.000   0.000
  0.000   0.000  -0.002   0.000  -0.000  -0.000  -0.000   0.001
 -0.001   0.000  -0.000  -0.001  -0.000   0.000  -0.000   0.000
 pseudopotential strength for first ion, spin component:           2
-10.266   0.051  -0.000  -0.003  -0.000   1.260  -0.018   0.000
  0.051 -10.235   0.000  -0.000  -0.003  -0.018   1.250  -0.000
 -0.000   0.000 -10.325   0.000   0.000   0.000  -0.000   1.282
 -0.003  -0.000   0.000 -10.235  -0.051   0.001   0.000  -0.000
 -0.000  -0.003   0.000  -0.051 -10.266   0.000   0.001  -0.000
  1.260  -0.018   0.000   0.001   0.000   0.794   0.006  -0.000
 -0.018   1.250  -0.000   0.000   0.001   0.006   0.797   0.000
  0.000  -0.000   1.282  -0.000  -0.000  -0.000   0.000   0.787
  0.001   0.000  -0.000   1.250   0.018  -0.000  -0.000   0.000
  0.000   0.001  -0.000   0.018   1.260  -0.000  -0.000   0.000
  0.000  -0.000   0.001  -0.000   0.000  -0.000  -0.000  -0.000
 -0.000   0.000  -0.000   0.000  -0.000   0.000  -0.000   0.000
  0.000   0.002   0.000  -0.000   0.000  -0.000  -0.001  -0.000
 -0.000  -0.000   0.002  -0.000  -0.000  -0.000   0.000  -0.001
  0.000  -0.000   0.000   0.002  -0.000   0.000  -0.000  -0.000
  0.000  -0.001  -0.000   0.000  -0.001  -0.000   0.001   0.000
  0.000   0.000  -0.002   0.000   0.000  -0.000  -0.000   0.001
 -0.001   0.000  -0.000  -0.001  -0.000   0.000  -0.000   0.000
 total augmentation occupancy for first ion, spin component:           1
  1.802  -0.194   0.000   0.006  -0.000  -0.001   0.090  -0.000  -0.003  -0.000  -0.000  -0.000  -0.008   0.000   0.006   0.001
 -0.194   1.622  -0.000  -0.000   0.006   0.088   0.085   0.000  -0.000  -0.003   0.000   0.000  -0.012   0.000   0.003   0.003
  0.000  -0.000   1.943  -0.000  -0.000  -0.000   0.000  -0.076   0.000   0.000  -0.016  -0.009  -0.000   0.002   0.000   0.000
  0.006  -0.000  -0.000   1.622   0.194  -0.003   0.000   0.000   0.085  -0.088  -0.000   0.000  -0.003  -0.000  -0.012   0.000
 -0.000   0.006  -0.000   0.194   1.802   0.000  -0.003   0.000  -0.090  -0.001   0.000   0.000   0.006  -0.000   0.008  -0.000
 -0.001   0.088  -0.000  -0.003   0.000   0.095   0.075   0.000  -0.006  -0.000   0.000  -0.000  -0.005  -0.000   0.002   0.000
  0.090   0.085   0.000   0.000  -0.003   0.075   0.175   0.000  -0.000  -0.006   0.000  -0.000  -0.010   0.000  -0.002   0.001
 -0.000   0.000  -0.076   0.000   0.000   0.000   0.000   0.071   0.000  -0.000   0.030  -0.015  -0.000  -0.003  -0.000   0.000
 -0.003  -0.000   0.000   0.085  -0.090  -0.006  -0.000   0.000   0.175  -0.075  -0.000  -0.000   0.002   0.000  -0.010  -0.000
 -0.000  -0.003   0.000  -0.088  -0.001  -0.000  -0.006  -0.000  -0.075   0.095  -0.000   0.000   0.002   0.000   0.005  -0.002
 -0.000   0.000  -0.016  -0.000   0.000   0.000   0.000   0.030  -0.000  -0.000   0.964  -0.298   0.000  -0.021  -0.000   0.000
 -0.000   0.000  -0.009   0.000   0.000  -0.000  -0.000  -0.015  -0.000   0.000  -0.298   0.155   0.000   0.006  -0.000  -0.000
 -0.008  -0.012  -0.000  -0.003   0.006  -0.005  -0.010  -0.000   0.002   0.002   0.000   0.000   0.183  -0.000  -0.000  -0.015
  0.000  -0.000   0.002  -0.000  -0.000  -0.000   0.000  -0.003  -0.000   0.000  -0.021   0.006  -0.000   0.194   0.000   0.000
  0.006   0.003   0.000  -0.012   0.008   0.002  -0.002  -0.000  -0.010   0.005  -0.000   0.000  -0.000   0.000   0.183   0.000
  0.001   0.003   0.000   0.000  -0.000   0.000   0.001   0.000  -0.000  -0.002   0.000  -0.000  -0.015   0.000   0.000   0.002
  0.000   0.000   0.002   0.000  -0.000   0.000   0.000   0.000  -0.000  -0.000   0.002  -0.001   0.000  -0.018  -0.000  -0.000
 -0.000  -0.000   0.000   0.003  -0.001  -0.002   0.000  -0.000   0.001  -0.000  -0.000   0.000  -0.000  -0.000  -0.015  -0.000
 total augmentation occupancy for first ion, spin component:           2
  0.071   0.121   0.000  -0.006  -0.000  -0.066  -0.059  -0.000   0.003  -0.000  -0.000   0.000   0.005   0.000  -0.001   0.000
  0.121   0.193   0.000  -0.000  -0.006  -0.058  -0.127  -0.000  -0.000   0.003   0.000   0.000   0.008   0.000  -0.001   0.000
  0.000   0.000  -0.009   0.000  -0.000  -0.000  -0.000  -0.028  -0.000   0.000  -0.001   0.001   0.000   0.000   0.000   0.000
 -0.006  -0.000   0.000   0.193  -0.121   0.003   0.000  -0.000  -0.127   0.058   0.000   0.000   0.001   0.000   0.008  -0.000
 -0.000  -0.006  -0.000  -0.121   0.071   0.000   0.003   0.000   0.059  -0.066   0.000  -0.000  -0.001  -0.000  -0.005   0.000
 -0.066  -0.058  -0.000   0.003   0.000   0.017   0.024   0.000  -0.001  -0.000   0.000   0.000  -0.002  -0.000  -0.000  -0.000
 -0.059  -0.127  -0.000   0.000   0.003   0.024   0.043   0.000  -0.000  -0.001   0.000   0.000  -0.003   0.000   0.000  -0.000
 -0.000  -0.000  -0.028  -0.000   0.000   0.000   0.000   0.003   0.000  -0.000   0.002   0.001  -0.000  -0.000  -0.000  -0.000
  0.003  -0.000  -0.000  -0.127   0.059  -0.001  -0.000   0.000   0.043  -0.024  -0.000   0.000  -0.000   0.000  -0.003   0.000
 -0.000   0.003   0.000   0.058  -0.066  -0.000  -0.001  -0.000  -0.024   0.017  -0.000  -0.000  -0.000   0.000   0.002  -0.000
 -0.000   0.000  -0.001   0.000   0.000   0.000   0.000   0.002  -0.000  -0.000   0.009   0.023   0.000   0.000   0.000   0.000
  0.000   0.000   0.001   0.000  -0.000   0.000   0.000   0.001  -0.000  -0.000   0.023  -0.014   0.000  -0.000  -0.000   0.000
  0.005   0.008   0.000   0.001  -0.001  -0.002  -0.003  -0.000  -0.000  -0.000   0.000   0.000   0.000   0.000  -0.000   0.001
  0.000   0.000   0.000   0.000  -0.000  -0.000   0.000  -0.000  -0.000   0.000   0.000  -0.000   0.000  -0.000   0.000  -0.000
 -0.001  -0.001   0.000   0.008  -0.005  -0.000   0.000  -0.000  -0.003   0.002   0.000   0.000  -0.000   0.000   0.000  -0.000
  0.000   0.000   0.000  -0.000   0.000  -0.000  -0.000  -0.000   0.000  -0.000   0.000   0.000   0.001  -0.000  -0.000  -0.000
  0.000  -0.000   0.000   0.000  -0.000  -0.000   0.000  -0.000   0.000   0.000  -0.000   0.000  -0.000   0.001   0.000   0.000
  0.000   0.000   0.000   0.000  -0.000  -0.000  -0.000  -0.000  -0.000   0.000  -0.000  -0.000   0.000   0.000   0.001   0.000


------------------------ aborting loop because EDIFF is reached ----------------------------------------





 total charge     

# of ion       s       p       d       tot
------------------------------------------
    1        0.377   0.432   8.315   9.124
    2        0.378   0.432   8.332   9.141
    3        0.728   0.904   0.000   1.632
    4        1.006   1.443   0.000   2.450
    5        1.381   2.293   0.000   3.675
    6        1.367   2.316   0.000   3.683
    7        1.376   2.308   0.000   3.685
    8        1.373   2.307   0.000   3.680
    9        1.364   2.366   0.000   3.730
   10        1.369   2.331   0.000   3.700
--------------------------------------------------
tot         10.720  17.133  16.647  44.500



 magnetization (x)

# of ion       s       p       d       tot
------------------------------------------
    1       -0.000  -0.002   0.698   0.696
    2       -0.000   0.002  -0.705  -0.703
    3       -0.000  -0.000   0.000  -0.000
    4       -0.000  -0.000   0.000  -0.000
    5       -0.000   0.008   0.000   0.007
    6       -0.000   0.007   0.000   0.007
    7        0.000  -0.019   0.000  -0.019
    8        0.000  -0.018   0.000  -0.018
    9       -0.000  -0.013   0.000  -0.013
   10       -0.000   0.025   0.000   0.025
--------------------------------------------------
tot         -0.000  -0.010  -0.007  -0.017

    CHARGE:  cpu time    2.2000: real time    2.2026
    FORLOC:  cpu time    0.0840: real time    0.0839
    FORNL :  cpu time    6.6760: real time    6.7562
    STRESS:  cpu time   20.0600: real time   20.2172
    FORCOR:  cpu time   51.7920: real time   52.1003
    FORHAR:  cpu time    0.3600: real time    0.3636
    MIXING:  cpu time    0.0400: real time    0.0413
    OFIELD:  cpu time    0.0000: real time    0.0000

  FORCE on cell =-STRESS in cart. coord.  units (eV):
  Direction    XX          YY          ZZ          XY          YZ          ZX
  --------------------------------------------------------------------------------------
  Alpha Z    39.55050    39.55050    39.55050
  Ewald   13696.89014 13696.88689-16081.03215    -0.00211    -0.00066    -0.00119
  Hartree 14449.54884 14449.54975-13860.87500    -0.00040     0.00006     0.00010
  E(xc)    -271.80313  -271.80316  -271.55318     0.00004     0.00000     0.00001
  Local  -29071.46176-29071.46101 28977.42017     0.00207     0.00039     0.00072
  n-local   463.38619   464.33019   465.28369     0.43845     0.27816     0.17602
  augment   -14.32443   -14.32455   -18.71969     0.00020    -0.00001     0.00007
  Kinetic   713.37159   703.00236   750.34502    -5.02748    -1.78412    -2.30409
  Fock        0.00000     0.00000     0.00000     0.00000     0.00000     0.00000
  -------------------------------------------------------------------------------------
  Total       0.44445     0.44445     0.41936    -0.00000    -0.00000    -0.00000
  in kB       1.13710     1.13710     1.07290    -0.00000    -0.00000    -0.00000
  external pressure =        1.12 kB  Pullay stress =        0.00 kB


 VOLUME and BASIS-vectors are now :
 -----------------------------------------------------------------------------
  energy-cutoff  :      520.00
  volume of cell :      626.24
      direct lattice vectors                 reciprocal lattice vectors
     5.820366479  0.000000334  0.000000000     0.171810493 -0.099194816  0.000000000
     2.910182690  5.040585206 -0.000000000    -0.000000011  0.198389669 -0.000000000
    -0.000000000  0.000000000 21.345636154    -0.000000000  0.000000000  0.046847983

  length of vectors
     5.820366479  5.820366184 21.345636154     0.198389659  0.198389669  0.046847983


 FORCES acting on ions
    electron-ion (+dipol)            ewald-force                    non-local-force                 convergence-correction
 -----------------------------------------------------------------------------------------------
   -.163E-03 -.143E-03 0.229E+01   0.925E-03 0.545E-03 -.306E+01   0.686E-17 -.136E-16 0.798E+00   -.170E-06 0.221E-05 -.151E-01
   0.191E-03 0.744E-04 0.233E+01   -.927E-03 -.545E-03 -.310E+01   -.776E-19 0.142E-16 0.801E+00   -.321E-06 0.195E-05 -.168E-01
   -.400E-04 -.173E-04 0.304E+03   -.233E-03 -.131E-03 -.301E+03   0.212E-16 -.139E-17 -.366E+01   -.597E-07 -.360E-07 -.208E-01
   0.502E-04 -.123E-04 -.323E+03   0.276E-03 0.154E-03 0.316E+03   -.731E-18 0.167E-16 0.755E+01   0.157E-06 0.595E-07 0.252E-01
   -.386E+01 -.132E+00 -.608E+03   0.571E+00 -.710E-03 0.611E+03   0.329E+01 0.202E-01 -.396E+01   0.172E-01 0.118E+00 0.325E-01
   0.181E+01 0.340E+01 -.608E+03   -.287E+00 -.494E+00 0.611E+03   -.163E+01 -.286E+01 -.396E+01   0.938E-01 -.740E-01 0.325E-01
   0.204E+01 -.327E+01 -.608E+03   -.285E+00 0.494E+00 0.611E+03   -.166E+01 0.284E+01 -.396E+01   -.111E+00 -.442E-01 0.325E-01
   0.221E+02 -.178E+00 0.611E+03   -.193E+02 0.308E-01 -.614E+03   -.275E+01 0.262E-01 0.369E+01   -.283E-02 0.129E+00 -.404E-01
   -.112E+02 -.190E+02 0.611E+03   0.970E+01 0.167E+02 -.614E+03   0.140E+01 0.236E+01 0.369E+01   0.113E+00 -.622E-01 -.404E-01
   -.109E+02 0.192E+02 0.611E+03   0.965E+01 -.168E+02 -.614E+03   0.135E+01 -.239E+01 0.369E+01   -.111E+00 -.671E-01 -.404E-01
 -----------------------------------------------------------------------------------------------
   0.763E-04 -.118E-03 -.462E+01   -.888E-14 0.711E-14 0.455E-12   0.000E+00 0.000E+00 0.468E+01   0.104E-06 0.451E-05 -.510E-01


 POSITION                                       TOTAL-FORCE (eV/Angst)
 -----------------------------------------------------------------------------------
      2.91018      1.68019     10.67236        -0.000000      0.000000      0.007990
      5.82037      3.36039     10.67222         0.000000      0.000000      0.014764
     -0.00000      0.00000      9.50944        -0.000000      0.000000     -0.024570
     -0.00000      0.00000     11.73245        -0.000000      0.000000      0.022422
      3.79025     -0.00004     12.19695         0.018949      0.006321     -0.017112
      1.01503      1.75816     12.19695        -0.004000     -0.019571     -0.017112
      3.92528      3.28247     12.19695        -0.014949      0.013249     -0.017112
      2.10519     -0.00010      9.18362        -0.017038      0.007422      0.010243
      1.85750      3.21748      9.18362         0.014946      0.011044      0.010243
      4.76785      1.82320      9.18362         0.002092     -0.018466      0.010243
 -----------------------------------------------------------------------------------
    total drift:                                0.000076     -0.000114      0.016025


--------------------------------------------------------------------------------------------------------



  FREE ENERGIE OF THE ION-ELECTRON SYSTEM (eV)
  ---------------------------------------------------
  free  energy   TOTEN  =       -44.76847071 eV

  energy  without entropy=      -44.76847071  energy(sigma->0) =      -44.76847071

 d Force = 0.1876636E-03[ 0.878E-04, 0.288E-03]  d Energy = 0.2391615E-03-0.515E-04
 d Force =-0.3564937E+01[-0.356E+01,-0.357E+01]  d Ewald  = 0.1460399E+02-0.182E+02


--------------------------------------------------------------------------------------------------------


    POTLOK:  cpu time   52.2800: real time   52.4552


--------------------------------------------------------------------------------------------------------




--------------------------------------------------------------------------------------------------------


  
 reached required accuracy - stopping structural energy minimisation
     LOOP+:  cpu time  462.7760: real time  465.5796
    4ORBIT:  cpu time    0.0000: real time    0.0000



 total charge     

# of ion       s       p       d       tot
------------------------------------------
    1        0.377   0.432   8.315   9.124
    2        0.378   0.432   8.332   9.141
    3        0.728   0.904   0.000   1.632
    4        1.006   1.443   0.000   2.450
    5        1.381   2.293   0.000   3.675
    6        1.367   2.316   0.000   3.683
    7        1.376   2.308   0.000   3.685
    8        1.373   2.307   0.000   3.680
    9        1.364   2.366   0.000   3.730
   10        1.369   2.331   0.000   3.700
--------------------------------------------------
tot         10.720  17.133  16.647  44.500



 magnetization (x)

# of ion       s       p       d       tot
------------------------------------------
    1       -0.000  -0.002   0.698   0.696
    2       -0.000   0.002  -0.705  -0.703
    3       -0.000  -0.000   0.000  -0.000
    4       -0.000  -0.000   0.000  -0.000
    5       -0.000   0.008   0.000   0.007
    6       -0.000   0.007   0.000   0.007
    7        0.000  -0.019   0.000  -0.019
    8        0.000  -0.018   0.000  -0.018
    9       -0.000  -0.013   0.000  -0.013
   10       -0.000   0.025   0.000   0.025
--------------------------------------------------
tot         -0.000  -0.010  -0.007  -0.017

 BZINTS: Fermi energy: -2.668396; 65.000000 electrons
         Band energy:-511.947299;  BLOECHL correction: -0.031154

 total amount of memory used by VASP MPI-rank0   133559. kBytes
=======================================================================

   base      :      30000. kBytes
   nonlr-proj:      11074. kBytes
   fftplans  :      11247. kBytes
   grid      :      68332. kBytes
   one-center:        311. kBytes
   wavefun   :      12595. kBytes

  
  
 General timing and accounting informations for this job:
 ========================================================
  
                  Total CPU time used (sec):    25975.564
                            User time (sec):    25439.228
                          System time (sec):      536.336
                         Elapsed time (sec):    26125.078
  
                   Maximum memory used (kb):      393248.
                   Average memory used (kb):           0.
  
                          Minor page faults:     22488437
                          Major page faults:            6
                 Voluntary context switches:         1070
