PROCAR lm decomposed
# of k-points:    5         # of bands:   48         # of ions:   10

 k-point     1 :    0.00000000 0.00000000 0.00000000     weight = 0.04000000

band     1 # energy  -18.43444395 # occ.  1.00000000

ion      s     py     pz     px    dxy    dyz    dz2    dxz  x2-y2    tot
    1  0.010  0.000  0.000  0.000  0.000  0.000  0.000  0.000  0.000  0.010
    2  0.010  0.000  0.000  0.000  0.000  0.000  0.000  0.000  0.000  0.010
    3  0.020  0.000  0.002  0.000  0.000  0.000  0.000  0.000  0.000  0.022
    4  0.191  0.000  0.000  0.000  0.000  0.000  0.000  0.000  0.000  0.191
    5  0.107  0.000  0.001  0.006  0.000  0.000  0.000  0.000  0.000  0.114
    6  0.107  0.004  0.001  0.001  0.000  0.000  0.000  0.000  0.000  0.114
    7  0.107  0.004  0.001  0.001  0.000  0.000  0.000  0.000  0.000  0.114
    8  0.017  0.000  0.000  0.000  0.000  0.000  0.000  0.000  0.000  0.017
    9  0.017  0.000  0.000  0.000  0.000  0.000  0.000  0.000  0.000  0.017
   10  0.017  0.000  0.000  0.000  0.000  0.000  0.000  0.000  0.000  0.017
tot    0.601  0.009  0.008  0.009  0.000  0.000  0.000  0.000  0.000  0.626

band     2 # energy  -16.78187618 # occ.  1.00000000

ion      s     py     pz     px    dxy    dyz    dz2    dxz  x2-y2    tot
    1  0.005  0.000  0.006  0.000  0.000  0.000  0.000  0.000  0.000  0.011
    2  0.005  0.000  0.006  0.000  0.000  0.000  0.000  0.000  0.000  0.011
    3  0.067  0.000  0.001  0.000  0.000  0.000  0.000  0.000  0.000  0.068
    4  0.020  0.000  0.004  0.000  0.000  0.000  0.000  0.000  0.000  0.024
    5  0.022  0.000  0.000  0.001  0.000  0.000  0.000  0.000  0.000  0.023
    6  0.022  0.001  0.000  0.000  0.000  0.000  0.000  0.000  0.000  0.023
    7  0.022  0.001  0.000  0.000  0.000  0.000  0.000  0.000  0.000  0.023
    8  0.154  0.000  0.000  0.002  0.000  0.000  0.000  0.000  0.000  0.157
    9  0.154  0.001  0.000  0.000  0.000  0.000  0.000  0.000  0.000  0.157
   10  0.154  0.001  0.000  0.000  0.000  0.000  0.000  0.000  0.000  0.157
tot    0.626  0.005  0.018  0.005  0.000  0.000  0.000  0.000  0.000  0.653

band     3 # energy  -15.62464768 # occ.  1.00000000

ion      s     py     pz     px    dxy    dyz    dz2    dxz  x2-y2    tot
    1  0.000  0.002  0.000  0.001  0.002  0.003  0.000  0.001  0.000  0.009
    2  0.000  0.002  0.000  0.001  0.002  0.003  0.000  0.001  0.000  0.008
    3  0.000  0.000  0.000  0.001  0.000  0.000  0.000  0.000  0.000  0.001
    4  0.000  0.000  0.000  0.047  0.000  0.000  0.000  0.000  0.000  0.047
    5  0.417  0.000  0.002  0.007  0.000  0.000  0.000  0.000  0.000  0.426
    6  0.113  0.002  0.001  0.000  0.000  0.000  0.000  0.000  0.000  0.116
    7  0.095  0.001  0.001  0.000  0.000  0.000  0.000  0.000  0.000  0.098
    8  0.005  0.000  0.000  0.000  0.000  0.000  0.000  0.000  0.000  0.005
    9  0.001  0.000  0.000  0.000  0.000  0.000  0.000  0.000  0.000  0.002
   10  0.001  0.000  0.000  0.000  0.000  0.000  0.000  0.000  0.000  0.001
tot    0.633  0.008  0.004  0.059  0.003  0.006  0.000  0.001  0.001  0.714

band     4 # energy  -15.62459959 # occ.  1.00000000

ion      s     py     pz     px    dxy    dyz    dz2    dxz  x2-y2    tot
    1  0.000  0.001  0.000  0.002  0.000  0.001  0.000  0.003  0.002  0.009
    2  0.000  0.001  0.000  0.002  0.000  0.001  0.000  0.003  0.002  0.008
    3  0.000  0.001  0.000  0.000  0.000  0.000  0.000  0.000  0.000  0.001
    4  0.000  0.047  0.000  0.000  0.000  0.000  0.000  0.000  0.000  0.047
    5  0.000  0.000  0.000  0.000  0.000  0.000  0.000  0.000  0.000  0.000
    6  0.304  0.004  0.002  0.002  0.000  0.000  0.000  0.000  0.000  0.311
    7  0.322  0.004  0.002  0.002  0.000  0.000  0.000  0.000  0.000  0.329
    8  0.000  0.000  0.000  0.000  0.000  0.000  0.000  0.000  0.000  0.000
    9  0.003  0.000  0.000  0.000  0.000  0.000  0.000  0.000  0.000  0.004
   10  0.004  0.000  0.000  0.000  0.000  0.000  0.000  0.000  0.000  0.004
tot    0.633  0.059  0.004  0.008  0.001  0.001  0.000  0.006  0.003  0.714

band     5 # energy  -15.11622122 # occ.  1.00000000

ion      s     py     pz     px    dxy    dyz    dz2    dxz  x2-y2    tot
    1  0.000  0.005  0.000  0.000  0.002  0.003  0.000  0.001  0.001  0.012
    2  0.000  0.004  0.000  0.001  0.001  0.002  0.000  0.002  0.001  0.012
    3  0.000  0.000  0.000  0.026  0.000  0.000  0.000  0.000  0.000  0.027
    4  0.000  0.000  0.000  0.000  0.000  0.000  0.000  0.000  0.000  0.000
    5  0.007  0.000  0.000  0.000  0.000  0.000  0.000  0.000  0.000  0.007
    6  0.002  0.000  0.000  0.000  0.000  0.000  0.000  0.000  0.000  0.002
    7  0.001  0.000  0.000  0.000  0.000  0.000  0.000  0.000  0.000  0.001
    8  0.428  0.000  0.002  0.004  0.000  0.000  0.000  0.000  0.000  0.434
    9  0.155  0.001  0.001  0.000  0.000  0.000  0.000  0.000  0.000  0.158
   10  0.068  0.001  0.000  0.000  0.000  0.000  0.000  0.000  0.000  0.069
tot    0.661  0.012  0.003  0.033  0.002  0.006  0.000  0.002  0.002  0.721

band     6 # energy  -15.11617869 # occ.  1.00000000

ion      s     py     pz     px    dxy    dyz    dz2    dxz  x2-y2    tot
    1  0.000  0.000  0.000  0.005  0.001  0.001  0.000  0.003  0.002  0.012
    2  0.000  0.001  0.000  0.004  0.001  0.002  0.000  0.002  0.001  0.012
    3  0.000  0.026  0.000  0.000  0.000  0.000  0.000  0.000  0.000  0.027
    4  0.000  0.000  0.000  0.000  0.000  0.000  0.000  0.000  0.000  0.000
    5  0.000  0.000  0.000  0.000  0.000  0.000  0.000  0.000  0.000  0.000
    6  0.005  0.000  0.000  0.000  0.000  0.000  0.000  0.000  0.000  0.005
    7  0.006  0.000  0.000  0.000  0.000  0.000  0.000  0.000  0.000  0.006
    8  0.006  0.000  0.000  0.000  0.000  0.000  0.000  0.000  0.000  0.006
    9  0.279  0.002  0.001  0.001  0.000  0.000  0.000  0.000  0.000  0.283
   10  0.366  0.003  0.002  0.001  0.000  0.000  0.000  0.000  0.000  0.372
tot    0.661  0.033  0.003  0.012  0.002  0.002  0.000  0.006  0.002  0.721

band     7 # energy  -12.71586904 # occ.  1.00000000

ion      s     py     pz     px    dxy    dyz    dz2    dxz  x2-y2    tot
    1  0.018  0.000  0.002  0.000  0.000  0.000  0.001  0.000  0.000  0.020
    2  0.018  0.000  0.002  0.000  0.000  0.000  0.001  0.000  0.000  0.020
    3  0.044  0.000  0.010  0.000  0.000  0.000  0.000  0.000  0.000  0.054
    4  0.230  0.000  0.007  0.000  0.000  0.000  0.000  0.000  0.000  0.237
    5  0.065  0.000  0.000  0.025  0.000  0.000  0.000  0.000  0.000  0.090
    6  0.065  0.019  0.000  0.006  0.000  0.000  0.000  0.000  0.000  0.090
    7  0.065  0.019  0.000  0.006  0.000  0.000  0.000  0.000  0.000  0.090
    8  0.006  0.000  0.000  0.004  0.000  0.000  0.000  0.000  0.000  0.010
    9  0.006  0.003  0.000  0.001  0.000  0.000  0.000  0.000  0.000  0.010
   10  0.006  0.003  0.000  0.001  0.000  0.000  0.000  0.000  0.000  0.010
tot    0.522  0.043  0.021  0.043  0.000  0.000  0.002  0.000  0.000  0.632

band     8 # energy   -9.95939516 # occ.  1.00000000

ion      s     py     pz     px    dxy    dyz    dz2    dxz  x2-y2    tot
    1  0.000  0.000  0.010  0.000  0.000  0.000  0.001  0.000  0.000  0.012
    2  0.000  0.000  0.010  0.000  0.000  0.000  0.001  0.000  0.000  0.011
    3  0.202  0.000  0.001  0.000  0.000  0.000  0.000  0.000  0.000  0.202
    4  0.037  0.000  0.051  0.000  0.000  0.000  0.000  0.000  0.000  0.087
    5  0.006  0.000  0.001  0.019  0.000  0.000  0.000  0.000  0.000  0.026
    6  0.006  0.014  0.001  0.005  0.000  0.000  0.000  0.000  0.000  0.026
    7  0.006  0.014  0.001  0.005  0.000  0.000  0.000  0.000  0.000  0.026
    8  0.024  0.000  0.001  0.043  0.000  0.000  0.000  0.000  0.000  0.068
    9  0.024  0.033  0.001  0.011  0.000  0.000  0.000  0.000  0.000  0.068
   10  0.024  0.032  0.001  0.011  0.000  0.000  0.000  0.000  0.000  0.068
tot    0.328  0.094  0.077  0.094  0.000  0.000  0.002  0.000  0.000  0.594

band     9 # energy   -8.74731212 # occ.  1.00000000

ion      s     py     pz     px    dxy    dyz    dz2    dxz  x2-y2    tot
    1  0.000  0.005  0.000  0.001  0.002  0.019  0.000  0.018  0.000  0.044
    2  0.000  0.000  0.000  0.005  0.000  0.007  0.000  0.019  0.002  0.033
    3  0.000  0.004  0.000  0.002  0.000  0.000  0.000  0.000  0.000  0.006
    4  0.000  0.074  0.000  0.046  0.000  0.000  0.000  0.000  0.000  0.120
    5  0.010  0.025  0.000  0.054  0.000  0.000  0.000  0.000  0.000  0.090
    6  0.026  0.112  0.001  0.027  0.000  0.000  0.000  0.000  0.000  0.165
    7  0.004  0.001  0.000  0.053  0.000  0.000  0.000  0.000  0.000  0.058
    8  0.002  0.002  0.002  0.003  0.000  0.000  0.000  0.000  0.000  0.008
    9  0.006  0.006  0.004  0.001  0.000  0.000  0.000  0.000  0.000  0.016
   10  0.001  0.000  0.000  0.004  0.000  0.000  0.000  0.000  0.000  0.005
tot    0.048  0.228  0.008  0.195  0.002  0.025  0.000  0.037  0.002  0.544

band    10 # energy   -8.74728499 # occ.  1.00000000

ion      s     py     pz     px    dxy    dyz    dz2    dxz  x2-y2    tot
    1  0.000  0.001  0.000  0.005  0.000  0.018  0.000  0.019  0.002  0.044
    2  0.000  0.005  0.000  0.000  0.002  0.019  0.000  0.007  0.000  0.033
    3  0.000  0.002  0.000  0.004  0.000  0.000  0.000  0.000  0.000  0.006
    4  0.000  0.046  0.000  0.074  0.000  0.000  0.000  0.000  0.000  0.120
    5  0.016  0.015  0.001  0.086  0.000  0.000  0.000  0.000  0.000  0.119
    6  0.000  0.003  0.000  0.040  0.000  0.000  0.000  0.000  0.000  0.043
    7  0.022  0.116  0.001  0.012  0.000  0.000  0.000  0.000  0.000  0.151
    8  0.003  0.001  0.002  0.004  0.000  0.000  0.000  0.000  0.000  0.011
    9  0.000  0.000  0.000  0.003  0.000  0.000  0.000  0.000  0.000  0.003
   10  0.005  0.006  0.003  0.001  0.000  0.000  0.000  0.000  0.000  0.015
tot    0.048  0.195  0.008  0.228  0.002  0.037  0.000  0.025  0.002  0.544

band    11 # energy   -8.68816002 # occ.  1.00000000

ion      s     py     pz     px    dxy    dyz    dz2    dxz  x2-y2    tot
    1  0.044  0.000  0.000  0.000  0.000  0.000  0.007  0.000  0.000  0.051
    2  0.041  0.000  0.000  0.000  0.000  0.000  0.006  0.000  0.000  0.047
    3  0.020  0.000  0.050  0.000  0.000  0.000  0.000  0.000  0.000  0.070
    4  0.001  0.000  0.069  0.000  0.000  0.000  0.000  0.000  0.000  0.071
    5  0.004  0.000  0.032  0.005  0.000  0.000  0.000  0.000  0.000  0.041
    6  0.004  0.004  0.032  0.002  0.000  0.000  0.000  0.000  0.000  0.041
    7  0.004  0.004  0.032  0.001  0.000  0.000  0.000  0.000  0.000  0.041
    8  0.001  0.000  0.026  0.020  0.000  0.000  0.000  0.000  0.000  0.047
    9  0.001  0.015  0.026  0.005  0.000  0.000  0.000  0.000  0.000  0.047
   10  0.001  0.014  0.026  0.005  0.000  0.000  0.000  0.000  0.000  0.047
tot    0.120  0.038  0.291  0.038  0.000  0.000  0.013  0.000  0.000  0.501

band    12 # energy   -8.00100460 # occ.  1.00000000

ion      s     py     pz     px    dxy    dyz    dz2    dxz  x2-y2    tot
    1  0.000  0.007  0.000  0.010  0.001  0.004  0.000  0.021  0.007  0.051
    2  0.000  0.015  0.000  0.002  0.005  0.017  0.000  0.000  0.003  0.042
    3  0.000  0.023  0.000  0.051  0.000  0.000  0.000  0.000  0.000  0.074
    4  0.000  0.002  0.000  0.004  0.000  0.000  0.000  0.000  0.000  0.006
    5  0.000  0.001  0.005  0.010  0.000  0.000  0.000  0.000  0.000  0.017
    6  0.000  0.012  0.006  0.001  0.000  0.000  0.000  0.000  0.000  0.019
    7  0.000  0.000  0.000  0.003  0.000  0.000  0.000  0.000  0.000  0.003
    8  0.004  0.014  0.001  0.105  0.000  0.000  0.000  0.000  0.000  0.124
    9  0.004  0.125  0.002  0.008  0.000  0.000  0.000  0.000  0.000  0.139
   10  0.000  0.008  0.000  0.041  0.000  0.000  0.000  0.000  0.000  0.048
tot    0.009  0.207  0.015  0.234  0.006  0.021  0.000  0.021  0.010  0.523

band    13 # energy   -8.00098254 # occ.  1.00000000

ion      s     py     pz     px    dxy    dyz    dz2    dxz  x2-y2    tot
    1  0.000  0.010  0.000  0.007  0.007  0.021  0.000  0.004  0.001  0.051
    2  0.000  0.002  0.000  0.015  0.003  0.000  0.000  0.017  0.005  0.042
    3  0.000  0.051  0.000  0.023  0.000  0.000  0.000  0.000  0.000  0.074
    4  0.000  0.004  0.000  0.002  0.000  0.000  0.000  0.000  0.000  0.006
    5  0.000  0.002  0.002  0.005  0.000  0.000  0.000  0.000  0.000  0.010
    6  0.000  0.000  0.002  0.005  0.000  0.000  0.000  0.000  0.000  0.007
    7  0.000  0.012  0.008  0.003  0.000  0.000  0.000  0.000  0.000  0.023
    8  0.002  0.034  0.001  0.047  0.000  0.000  0.000  0.000  0.000  0.083
    9  0.001  0.003  0.000  0.065  0.000  0.000  0.000  0.000  0.000  0.069
   10  0.006  0.117  0.002  0.035  0.000  0.000  0.000  0.000  0.000  0.159
tot    0.009  0.234  0.015  0.207  0.010  0.021  0.000  0.021  0.006  0.523

band    14 # energy   -7.75646493 # occ.  1.00000000

ion      s     py     pz     px    dxy    dyz    dz2    dxz  x2-y2    tot
    1  0.083  0.000  0.000  0.000  0.000  0.000  0.028  0.000  0.000  0.111
    2  0.086  0.000  0.000  0.000  0.000  0.000  0.022  0.000  0.000  0.108
    3  0.000  0.000  0.000  0.000  0.000  0.000  0.000  0.000  0.000  0.000
    4  0.000  0.000  0.000  0.000  0.000  0.000  0.000  0.000  0.000  0.000
    5  0.000  0.051  0.000  0.000  0.000  0.000  0.000  0.000  0.000  0.051
    6  0.000  0.013  0.000  0.038  0.000  0.000  0.000  0.000  0.000  0.051
    7  0.000  0.013  0.000  0.038  0.000  0.000  0.000  0.000  0.000  0.051
    8  0.000  0.063  0.000  0.000  0.000  0.000  0.000  0.000  0.000  0.063
    9  0.000  0.015  0.000  0.048  0.000  0.000  0.000  0.000  0.000  0.063
   10  0.000  0.016  0.000  0.047  0.000  0.000  0.000  0.000  0.000  0.063
tot    0.169  0.171  0.000  0.171  0.000  0.000  0.050  0.000  0.000  0.562

band    15 # energy   -6.40550737 # occ.  1.00000000

ion      s     py     pz     px    dxy    dyz    dz2    dxz  x2-y2    tot
    1  0.000  0.000  0.044  0.000  0.000  0.000  0.000  0.000  0.000  0.044
    2  0.000  0.000  0.043  0.000  0.000  0.000  0.000  0.000  0.000  0.043
    3  0.000  0.000  0.000  0.000  0.000  0.000  0.000  0.000  0.000  0.000
    4  0.000  0.000  0.000  0.000  0.000  0.000  0.000  0.000  0.000  0.000
    5  0.000  0.080  0.000  0.000  0.000  0.000  0.000  0.000  0.000  0.080
    6  0.000  0.020  0.000  0.060  0.000  0.000  0.000  0.000  0.000  0.080
    7  0.000  0.020  0.000  0.060  0.000  0.000  0.000  0.000  0.000  0.080
    8  0.000  0.067  0.000  0.000  0.000  0.000  0.000  0.000  0.000  0.067
    9  0.000  0.017  0.000  0.050  0.000  0.000  0.000  0.000  0.000  0.067
   10  0.000  0.017  0.000  0.050  0.000  0.000  0.000  0.000  0.000  0.067
tot    0.000  0.221  0.087  0.221  0.000  0.000  0.000  0.000  0.000  0.529

band    16 # energy   -6.10476363 # occ.  1.00000000

ion      s     py     pz     px    dxy    dyz    dz2    dxz  x2-y2    tot
    1  0.000  0.000  0.000  0.000  0.027  0.027  0.000  0.258  0.230  0.542
    2  0.000  0.002  0.000  0.000  0.000  0.001  0.000  0.011  0.005  0.018
    3  0.000  0.000  0.000  0.000  0.000  0.000  0.000  0.000  0.000  0.000
    4  0.000  0.001  0.000  0.000  0.000  0.000  0.000  0.000  0.000  0.001
    5  0.002  0.005  0.028  0.005  0.000  0.000  0.000  0.000  0.000  0.040
    6  0.004  0.003  0.045  0.024  0.000  0.000  0.000  0.000  0.000  0.077
    7  0.001  0.000  0.002  0.010  0.000  0.000  0.000  0.000  0.000  0.012
    8  0.000  0.001  0.003  0.003  0.000  0.000  0.000  0.000  0.000  0.006
    9  0.002  0.006  0.016  0.017  0.000  0.000  0.000  0.000  0.000  0.040
   10  0.003  0.000  0.031  0.017  0.000  0.000  0.000  0.000  0.000  0.051
tot    0.011  0.018  0.125  0.076  0.027  0.027  0.000  0.269  0.236  0.789

band    17 # energy   -6.10475290 # occ.  1.00000000

ion      s     py     pz     px    dxy    dyz    dz2    dxz  x2-y2    tot
    1  0.000  0.000  0.000  0.000  0.230  0.258  0.000  0.027  0.027  0.542
    2  0.000  0.000  0.000  0.002  0.005  0.011  0.000  0.001  0.000  0.018
    3  0.000  0.000  0.000  0.000  0.000  0.000  0.000  0.000  0.000  0.000
    4  0.000  0.000  0.000  0.001  0.000  0.000  0.000  0.000  0.000  0.001
    5  0.003  0.021  0.022  0.000  0.000  0.000  0.000  0.000  0.000  0.046
    6  0.000  0.004  0.005  0.001  0.000  0.000  0.000  0.000  0.000  0.009
    7  0.004  0.014  0.048  0.007  0.000  0.000  0.000  0.000  0.000  0.074
    8  0.003  0.024  0.030  0.001  0.000  0.000  0.000  0.000  0.000  0.059
    9  0.001  0.006  0.017  0.000  0.000  0.000  0.000  0.000  0.000  0.025
   10  0.001  0.006  0.002  0.006  0.000  0.000  0.000  0.000  0.000  0.014
tot    0.011  0.076  0.125  0.018  0.236  0.269  0.000  0.027  0.027  0.789

band    18 # energy   -5.61258404 # occ.  1.00000000

ion      s     py     pz     px    dxy    dyz    dz2    dxz  x2-y2    tot
    1  0.000  0.000  0.000  0.003  0.000  0.000  0.000  0.000  0.000  0.005
    2  0.000  0.000  0.000  0.000  0.173  0.164  0.000  0.028  0.029  0.394
    3  0.000  0.000  0.000  0.000  0.000  0.000  0.000  0.000  0.000  0.000
    4  0.000  0.000  0.000  0.001  0.000  0.000  0.000  0.000  0.000  0.001
    5  0.003  0.012  0.049  0.000  0.000  0.000  0.000  0.000  0.000  0.065
    6  0.004  0.017  0.080  0.009  0.000  0.000  0.000  0.000  0.000  0.109
    7  0.000  0.001  0.004  0.003  0.000  0.000  0.000  0.000  0.000  0.007
    8  0.003  0.019  0.060  0.005  0.000  0.000  0.000  0.000  0.000  0.086
    9  0.001  0.001  0.008  0.008  0.000  0.000  0.000  0.000  0.000  0.018
   10  0.001  0.004  0.024  0.000  0.000  0.000  0.000  0.000  0.000  0.029
tot    0.011  0.053  0.225  0.030  0.173  0.164  0.000  0.028  0.029  0.714

band    19 # energy   -5.61257166 # occ.  1.00000000

ion      s     py     pz     px    dxy    dyz    dz2    dxz  x2-y2    tot
    1  0.000  0.003  0.000  0.000  0.000  0.000  0.000  0.000  0.000  0.005
    2  0.000  0.000  0.000  0.000  0.029  0.028  0.000  0.164  0.173  0.394
    3  0.000  0.000  0.000  0.000  0.000  0.000  0.000  0.000  0.000  0.000
    4  0.000  0.001  0.000  0.000  0.000  0.000  0.000  0.000  0.000  0.001
    5  0.002  0.011  0.040  0.004  0.000  0.000  0.000  0.000  0.000  0.056
    6  0.001  0.000  0.009  0.002  0.000  0.000  0.000  0.000  0.000  0.012
    7  0.005  0.001  0.085  0.023  0.000  0.000  0.000  0.000  0.000  0.114
    8  0.000  0.001  0.001  0.000  0.000  0.000  0.000  0.000  0.000  0.003
    9  0.002  0.000  0.053  0.015  0.000  0.000  0.000  0.000  0.000  0.071
   10  0.002  0.013  0.037  0.008  0.000  0.000  0.000  0.000  0.000  0.060
tot    0.011  0.030  0.225  0.053  0.029  0.028  0.000  0.164  0.173  0.714

band    20 # energy   -5.37608351 # occ.  1.00000000

ion      s     py     pz     px    dxy    dyz    dz2    dxz  x2-y2    tot
    1  0.007  0.000  0.002  0.000  0.000  0.000  0.203  0.000  0.000  0.211
    2  0.003  0.000  0.002  0.000  0.000  0.000  0.106  0.000  0.000  0.112
    3  0.000  0.000  0.014  0.000  0.000  0.000  0.000  0.000  0.000  0.014
    4  0.010  0.000  0.089  0.000  0.000  0.000  0.000  0.000  0.000  0.099
    5  0.000  0.000  0.001  0.009  0.000  0.000  0.000  0.000  0.000  0.010
    6  0.000  0.007  0.001  0.001  0.000  0.000  0.000  0.000  0.000  0.010
    7  0.000  0.006  0.001  0.003  0.000  0.000  0.000  0.000  0.000  0.010
    8  0.000  0.000  0.051  0.009  0.000  0.000  0.000  0.000  0.000  0.060
    9  0.000  0.006  0.051  0.002  0.000  0.000  0.000  0.000  0.000  0.060
   10  0.000  0.007  0.051  0.002  0.000  0.000  0.000  0.000  0.000  0.060
tot    0.021  0.026  0.265  0.026  0.000  0.000  0.309  0.000  0.000  0.647

band    21 # energy   -5.01640111 # occ.  1.00000000

ion      s     py     pz     px    dxy    dyz    dz2    dxz  x2-y2    tot
    1  0.001  0.000  0.008  0.000  0.000  0.000  0.077  0.000  0.000  0.085
    2  0.000  0.000  0.009  0.000  0.000  0.000  0.030  0.000  0.000  0.039
    3  0.004  0.000  0.045  0.000  0.000  0.000  0.000  0.000  0.000  0.049
    4  0.000  0.000  0.005  0.000  0.000  0.000  0.000  0.000  0.000  0.005
    5  0.000  0.000  0.081  0.002  0.000  0.000  0.000  0.000  0.000  0.083
    6  0.000  0.001  0.081  0.000  0.000  0.000  0.000  0.000  0.000  0.083
    7  0.000  0.001  0.081  0.000  0.000  0.000  0.000  0.000  0.000  0.083
    8  0.000  0.000  0.038  0.002  0.000  0.000  0.000  0.000  0.000  0.041
    9  0.000  0.001  0.038  0.001  0.000  0.000  0.000  0.000  0.000  0.041
   10  0.000  0.002  0.038  0.000  0.000  0.000  0.000  0.000  0.000  0.041
tot    0.006  0.006  0.422  0.006  0.000  0.000  0.107  0.000  0.000  0.548

band    22 # energy   -4.92190255 # occ.  1.00000000

ion      s     py     pz     px    dxy    dyz    dz2    dxz  x2-y2    tot
    1  0.000  0.013  0.000  0.000  0.041  0.020  0.000  0.025  0.004  0.103
    2  0.000  0.011  0.000  0.003  0.015  0.000  0.000  0.023  0.002  0.054
    3  0.000  0.001  0.000  0.006  0.000  0.000  0.000  0.000  0.000  0.006
    4  0.000  0.001  0.000  0.024  0.000  0.000  0.000  0.000  0.000  0.025
    5  0.008  0.002  0.082  0.032  0.000  0.000  0.000  0.000  0.000  0.124
    6  0.004  0.002  0.042  0.027  0.000  0.000  0.000  0.000  0.000  0.075
    7  0.001  0.001  0.006  0.031  0.000  0.000  0.000  0.000  0.000  0.040
    8  0.005  0.000  0.111  0.012  0.000  0.000  0.000  0.000  0.000  0.129
    9  0.002  0.004  0.042  0.006  0.000  0.000  0.000  0.000  0.000  0.054
   10  0.001  0.000  0.017  0.002  0.000  0.000  0.000  0.000  0.000  0.019
tot    0.021  0.035  0.300  0.143  0.056  0.020  0.000  0.048  0.005  0.629

band    23 # energy   -4.92188781 # occ.  1.00000000

ion      s     py     pz     px    dxy    dyz    dz2    dxz  x2-y2    tot
    1  0.000  0.000  0.000  0.013  0.004  0.025  0.000  0.020  0.041  0.103
    2  0.000  0.003  0.000  0.011  0.002  0.023  0.000  0.000  0.015  0.054
    3  0.000  0.006  0.000  0.001  0.000  0.000  0.000  0.000  0.000  0.006
    4  0.000  0.024  0.000  0.001  0.000  0.000  0.000  0.000  0.000  0.025
    5  0.000  0.028  0.005  0.001  0.000  0.000  0.000  0.000  0.000  0.035
    6  0.005  0.033  0.045  0.002  0.000  0.000  0.000  0.000  0.000  0.084
    7  0.008  0.029  0.081  0.002  0.000  0.000  0.000  0.000  0.000  0.120
    8  0.000  0.002  0.002  0.002  0.000  0.000  0.000  0.000  0.000  0.006
    9  0.003  0.006  0.071  0.000  0.000  0.000  0.000  0.000  0.000  0.081
   10  0.005  0.012  0.097  0.002  0.000  0.000  0.000  0.000  0.000  0.115
tot    0.021  0.143  0.300  0.035  0.005  0.048  0.000  0.020  0.056  0.629

band    24 # energy   -4.46810263 # occ.  1.00000000

ion      s     py     pz     px    dxy    dyz    dz2    dxz  x2-y2    tot
    1  0.000  0.001  0.000  0.002  0.389  0.323  0.000  0.007  0.029  0.751
    2  0.000  0.001  0.000  0.001  0.021  0.019  0.000  0.002  0.002  0.047
    3  0.000  0.002  0.000  0.005  0.000  0.000  0.000  0.000  0.000  0.007
    4  0.000  0.000  0.000  0.002  0.000  0.000  0.000  0.000  0.000  0.002
    5  0.000  0.004  0.005  0.001  0.000  0.000  0.000  0.000  0.000  0.010
    6  0.000  0.000  0.012  0.000  0.000  0.000  0.000  0.000  0.000  0.012
    7  0.000  0.002  0.001  0.001  0.000  0.000  0.000  0.000  0.000  0.004
    8  0.002  0.001  0.014  0.010  0.000  0.000  0.000  0.000  0.000  0.028
    9  0.001  0.000  0.013  0.001  0.000  0.000  0.000  0.000  0.000  0.015
   10  0.000  0.001  0.000  0.007  0.000  0.000  0.000  0.000  0.000  0.009
tot    0.004  0.014  0.045  0.030  0.410  0.342  0.000  0.009  0.032  0.885

band    25 # energy   -4.46809691 # occ.  1.00000000

ion      s     py     pz     px    dxy    dyz    dz2    dxz  x2-y2    tot
    1  0.000  0.002  0.000  0.001  0.029  0.007  0.000  0.323  0.389  0.751
    2  0.000  0.001  0.000  0.001  0.002  0.002  0.000  0.019  0.021  0.047
    3  0.000  0.005  0.000  0.002  0.000  0.000  0.000  0.000  0.000  0.007
    4  0.000  0.002  0.000  0.000  0.000  0.000  0.000  0.000  0.000  0.002
    5  0.000  0.000  0.007  0.000  0.000  0.000  0.000  0.000  0.000  0.007
    6  0.000  0.000  0.000  0.005  0.000  0.000  0.000  0.000  0.000  0.005
    7  0.000  0.001  0.011  0.001  0.000  0.000  0.000  0.000  0.000  0.013
    8  0.000  0.002  0.004  0.001  0.000  0.000  0.000  0.000  0.000  0.007
    9  0.002  0.013  0.005  0.000  0.000  0.000  0.000  0.000  0.000  0.020
   10  0.002  0.003  0.018  0.002  0.000  0.000  0.000  0.000  0.000  0.025
tot    0.004  0.030  0.045  0.014  0.032  0.009  0.000  0.342  0.410  0.885

band    26 # energy   -4.17066197 # occ.  1.00000000

ion      s     py     pz     px    dxy    dyz    dz2    dxz  x2-y2    tot
    1  0.002  0.000  0.000  0.000  0.000  0.000  0.588  0.000  0.000  0.590
    2  0.022  0.000  0.000  0.000  0.000  0.000  0.195  0.000  0.000  0.217
    3  0.000  0.000  0.008  0.000  0.000  0.000  0.000  0.000  0.000  0.008
    4  0.000  0.000  0.016  0.000  0.000  0.000  0.000  0.000  0.000  0.016
    5  0.000  0.002  0.007  0.001  0.000  0.000  0.000  0.000  0.000  0.011
    6  0.000  0.000  0.007  0.004  0.000  0.000  0.000  0.000  0.000  0.011
    7  0.000  0.003  0.007  0.001  0.000  0.000  0.000  0.000  0.000  0.011
    8  0.000  0.003  0.004  0.002  0.000  0.000  0.000  0.000  0.000  0.009
    9  0.000  0.004  0.004  0.000  0.000  0.000  0.000  0.000  0.000  0.009
   10  0.000  0.000  0.004  0.004  0.000  0.000  0.000  0.000  0.000  0.009
tot    0.025  0.013  0.055  0.013  0.000  0.000  0.784  0.000  0.000  0.890

band    27 # energy   -4.04097767 # occ.  1.00000000

ion      s     py     pz     px    dxy    dyz    dz2    dxz  x2-y2    tot
    1  0.000  0.001  0.000  0.000  0.011  0.006  0.000  0.001  0.002  0.020
    2  0.000  0.000  0.000  0.004  0.283  0.182  0.000  0.121  0.102  0.692
    3  0.000  0.001  0.000  0.014  0.000  0.000  0.000  0.000  0.000  0.015
    4  0.000  0.004  0.000  0.003  0.000  0.000  0.000  0.000  0.000  0.007
    5  0.001  0.002  0.000  0.005  0.000  0.000  0.000  0.000  0.000  0.008
    6  0.000  0.004  0.001  0.008  0.000  0.000  0.000  0.000  0.000  0.013
    7  0.001  0.001  0.001  0.010  0.000  0.000  0.000  0.000  0.000  0.013
    8  0.003  0.007  0.006  0.025  0.000  0.000  0.000  0.000  0.000  0.040
    9  0.000  0.003  0.002  0.013  0.000  0.000  0.000  0.000  0.000  0.017
   10  0.003  0.011  0.014  0.011  0.000  0.000  0.000  0.000  0.000  0.040
tot    0.008  0.034  0.024  0.093  0.294  0.187  0.000  0.122  0.104  0.866

band    28 # energy   -4.04096405 # occ.  1.00000000

ion      s     py     pz     px    dxy    dyz    dz2    dxz  x2-y2    tot
    1  0.000  0.000  0.000  0.001  0.002  0.001  0.000  0.006  0.011  0.020
    2  0.000  0.004  0.000  0.000  0.102  0.121  0.000  0.182  0.283  0.692
    3  0.000  0.014  0.000  0.001  0.000  0.000  0.000  0.000  0.000  0.015
    4  0.000  0.003  0.000  0.004  0.000  0.000  0.000  0.000  0.000  0.007
    5  0.000  0.011  0.002  0.002  0.000  0.000  0.000  0.000  0.000  0.015
    6  0.001  0.007  0.000  0.001  0.000  0.000  0.000  0.000  0.000  0.010
    7  0.000  0.006  0.000  0.003  0.000  0.000  0.000  0.000  0.000  0.010
    8  0.001  0.009  0.009  0.006  0.000  0.000  0.000  0.000  0.000  0.024
    9  0.004  0.019  0.013  0.012  0.000  0.000  0.000  0.000  0.000  0.048
   10  0.001  0.021  0.000  0.003  0.000  0.000  0.000  0.000  0.000  0.025
tot    0.008  0.093  0.024  0.034  0.104  0.122  0.000  0.187  0.294  0.866

band    29 # energy   -3.75325638 # occ.  1.00000000

ion      s     py     pz     px    dxy    dyz    dz2    dxz  x2-y2    tot
    1  0.019  0.000  0.000  0.000  0.000  0.000  0.038  0.000  0.000  0.057
    2  0.003  0.000  0.000  0.000  0.000  0.000  0.576  0.000  0.000  0.579
    3  0.001  0.000  0.017  0.000  0.000  0.000  0.000  0.000  0.000  0.018
    4  0.000  0.000  0.038  0.000  0.000  0.000  0.000  0.000  0.000  0.038
    5  0.001  0.000  0.016  0.002  0.000  0.000  0.000  0.000  0.000  0.020
    6  0.001  0.003  0.016  0.000  0.000  0.000  0.000  0.000  0.000  0.020
    7  0.001  0.001  0.016  0.002  0.000  0.000  0.000  0.000  0.000  0.020
    8  0.001  0.000  0.014  0.005  0.000  0.000  0.000  0.000  0.000  0.020
    9  0.001  0.003  0.014  0.003  0.000  0.000  0.000  0.000  0.000  0.020
   10  0.001  0.005  0.014  0.000  0.000  0.000  0.000  0.000  0.000  0.020
tot    0.030  0.012  0.146  0.012  0.000  0.000  0.613  0.000  0.000  0.813

band    30 # energy   -3.62089787 # occ.  1.00000000

ion      s     py     pz     px    dxy    dyz    dz2    dxz  x2-y2    tot
    1  0.000  0.002  0.000  0.013  0.066  0.000  0.000  0.003  0.001  0.085
    2  0.000  0.000  0.000  0.015  0.107  0.017  0.000  0.000  0.016  0.155
    3  0.000  0.000  0.000  0.003  0.000  0.000  0.000  0.000  0.000  0.003
    4  0.000  0.000  0.000  0.002  0.000  0.000  0.000  0.000  0.000  0.002
    5  0.001  0.014  0.016  0.037  0.000  0.000  0.000  0.000  0.000  0.067
    6  0.000  0.017  0.001  0.100  0.000  0.000  0.000  0.000  0.000  0.118
    7  0.000  0.000  0.008  0.070  0.000  0.000  0.000  0.000  0.000  0.078
    8  0.001  0.005  0.003  0.034  0.000  0.000  0.000  0.000  0.000  0.043
    9  0.000  0.010  0.001  0.080  0.000  0.000  0.000  0.000  0.000  0.091
   10  0.001  0.000  0.001  0.068  0.000  0.000  0.000  0.000  0.000  0.069
tot    0.003  0.048  0.030  0.421  0.173  0.018  0.000  0.003  0.016  0.711

band    31 # energy   -3.62087888 # occ.  1.00000000

ion      s     py     pz     px    dxy    dyz    dz2    dxz  x2-y2    tot
    1  0.000  0.013  0.000  0.002  0.001  0.003  0.000  0.000  0.066  0.085
    2  0.000  0.015  0.000  0.000  0.016  0.000  0.000  0.017  0.107  0.155
    3  0.000  0.003  0.000  0.000  0.000  0.000  0.000  0.000  0.000  0.003
    4  0.000  0.002  0.000  0.000  0.000  0.000  0.000  0.000  0.000  0.002
    5  0.000  0.104  0.001  0.003  0.000  0.000  0.000  0.000  0.000  0.108
    6  0.001  0.039  0.015  0.002  0.000  0.000  0.000  0.000  0.000  0.058
    7  0.000  0.063  0.009  0.025  0.000  0.000  0.000  0.000  0.000  0.097
    8  0.000  0.090  0.000  0.002  0.000  0.000  0.000  0.000  0.000  0.092
    9  0.001  0.041  0.002  0.000  0.000  0.000  0.000  0.000  0.000  0.045