<?xml version="1.0" encoding="ISO-8859-1"?>
<modeling>
 <generator>
  <i name="program" type="string">vasp </i>
  <i name="version" type="string">5.4.4.18Apr17-6-g9f103f2a35  </i>
  <i name="subversion" type="string">(build May  1 2020 15:48:39) complex            parallel </i>
  <i name="platform" type="string">LinuxGNU </i>
  <i name="date" type="string">2020 06 18 </i>
  <i name="time" type="string">11:04:35 </i>
 </generator>
 <incar>
  <i type="int" name="ISTART">     1</i>
  <i type="string" name="PREC">accurate</i>
  <i type="string" name="ALGO"> Normal</i>
  <i type="int" name="ISPIN">     2</i>
  <i name="AMIN">      0.01000000</i>
  <i type="int" name="NELM">   400</i>
  <i type="int" name="IBRION">     2</i>
  <i name="EDIFF">      0.00010000</i>
  <i type="int" name="NSW">    99</i>
  <i type="int" name="ISIF">     3</i>
  <i name="ENCUT">    520.00000000</i>
  <v name="MAGMOM">      1.26000000      1.26000000      0.60000000      0.60000000      0.60000000      0.60000000      0.60000000      0.60000000      0.60000000      0.60000000</v>
  <i type="string" name="LREAL"> Auto</i>
  <i type="int" name="ISMEAR">    -5</i>
  <i name="SIGMA">      0.05000000</i>
  <i type="logical" name="LWAVE"> F  </i>
  <i type="int" name="LORBIT">    11</i>
  <v type="int" name="KPOINT_BSE">    -1     0     0     0</v>
  <i type="int" name="NELM">   400</i>
  <i type="string" name="GGA"> Bo</i>
  <i name="PARAM1">      0.18333333</i>
  <i name="PARAM2">      0.22000000</i>
  <i type="logical" name="LUSE_VDW"> T  </i>
  <i name="AGGAC">      0.00000000</i>
 </incar>
 <structure name="primitive_cell" >
  <crystal>
   <varray name="basis" >
    <v>       6.90777700      -0.00000000       0.00000000 </v>
    <v>       3.45388800       5.98231000       0.00000000 </v>
    <v>       0.00000000       0.00000000      23.44458800 </v>
   </varray>
   <i name="volume">    968.83501932 </i>
   <varray name="rec_basis" >
    <v>       0.14476437      -0.08357974       0.00000000 </v>
    <v>       0.00000000       0.16715951      -0.00000000 </v>
    <v>      -0.00000000       0.00000000       0.04265377 </v>
   </varray>
  </crystal>
  <varray name="positions" >
   <v>       0.33333300       0.33333300       0.49992500 </v>
   <v>       0.00042000       0.37322400      -0.42624800 </v>
   <v>      -0.37364300       0.00042000      -0.42624800 </v>
   <v>       0.37322400      -0.37364300      -0.42624800 </v>
   <v>       0.37364300      -0.00042000       0.42624800 </v>
   <v>      -0.37322400       0.37364300       0.42624800 </v>
   <v>      -0.00042000      -0.37322400       0.42624800 </v>
   <v>      -0.33333300      -0.33333300      -0.49992500 </v>
   <v>       0.00000000       0.00000000       0.44821600 </v>
   <v>       0.00000000       0.00000000      -0.44821600 </v>
  </varray>
 </structure>
 <varray name="primitive_index" >
  <v type="int" >        1 </v>
  <v type="int" >        6 </v>
  <v type="int" >        5 </v>
  <v type="int" >        7 </v>
  <v type="int" >        8 </v>
  <v type="int" >       10 </v>
  <v type="int" >        9 </v>
  <v type="int" >        2 </v>
  <v type="int" >        3 </v>
  <v type="int" >        4 </v>
 </varray>
 <kpoints>
  <generation param="Gamma">
   <v type="int" name="divisions">       5        5        1 </v>
   <v name="usershift">      0.00000000       0.00000000       0.00000000 </v>
   <v name="genvec1">      0.20000000       0.00000000       0.00000000 </v>
   <v name="genvec2">      0.00000000       0.20000000       0.00000000 </v>
   <v name="genvec3">      0.00000000       0.00000000       1.00000000 </v>
   <v name="shift">      0.00000000       0.00000000       0.00000000 </v>
  </generation>
  <varray name="kpointlist" >
   <v>       0.00000000       0.00000000       0.00000000 </v>
   <v>       0.20000000       0.00000000       0.00000000 </v>
   <v>       0.40000000       0.00000000       0.00000000 </v>
   <v>       0.40000000       0.20000000       0.00000000 </v>
   <v>      -0.40000000       0.20000000       0.00000000 </v>
  </varray>
  <varray name="weights" >
   <v>       0.04000000 </v>
   <v>       0.24000000 </v>
   <v>       0.24000000 </v>
   <v>       0.24000000 </v>
   <v>       0.24000000 </v>
  </varray>
  <varray name="tetrahedronlist"  type="int" >
   <v type="int" >        6        1        1        2        2 </v>
   <v type="int" >       12        1        2        2        2 </v>
   <v type="int" >       12        2        2        3        4 </v>
   <v type="int" >       12        2        2        2        4 </v>
   <v type="int" >       12        2        3        3        4 </v>
   <v type="int" >       12        2        3        4        4 </v>
   <v type="int" >        6        2        2        4        4 </v>
   <v type="int" >       12        3        3        3        5 </v>
   <v type="int" >       12        3        3        4        5 </v>
   <v type="int" >       12        3        4        4        5 </v>
   <v type="int" >        6        3        3        5        5 </v>
   <v type="int" >       12        3        4        5        5 </v>
   <v type="int" >        6        4        4        5        5 </v>
   <v type="int" >       12        4        5        5        5 </v>
   <v type="int" >        6        5        5        5        5 </v>
  </varray>
  <i name="volumeweight">      0.00666667 </i>
 </kpoints>
 <parameters>
  <separator name="general" >
   <i type="string" name="SYSTEM">unknown system</i>
   <i type="logical" name="LCOMPAT"> F  </i>
  </separator>
  <separator name="electronic" >
   <i type="string" name="PREC">accura</i>
   <i name="ENMAX">    520.00000000</i>
   <i name="ENAUG">    544.56500000</i>
   <i name="EDIFF">      0.00010000</i>
   <i type="int" name="IALGO">    38</i>
   <i type="int" name="IWAVPR">    11</i>
   <i type="int" name="NBANDS">    48</i>
   <i name="NELECT">     65.00000000</i>
   <i type="int" name="TURBO">     0</i>
   <i type="int" name="IRESTART">     0</i>
   <i type="int" name="NREBOOT">     0</i>
   <i type="int" name="NMIN">     0</i>
   <i name="EREF">      0.00000000</i>
   <separator name="electronic smearing" >
    <i type="int" name="ISMEAR">    -5</i>
    <i name="SIGMA">      0.05000000</i>
    <i name="KSPACING">      0.50000000</i>
    <i type="logical" name="KGAMMA"> T  </i>
   </separator>
   <separator name="electronic projectors" >
    <i type="logical" name="LREAL"> T  </i>
    <v name="ROPT">     -0.00025000     -0.00025000     -0.00025000     -0.00025000</v>
    <i type="int" name="LMAXPAW">  -100</i>
    <i type="int" name="LMAXMIX">     2</i>
    <i type="logical" name="NLSPLINE"> F  </i>
   </separator>
   <separator name="electronic startup" >
    <i type="int" name="ISTART">     0</i>
    <i type="int" name="ICHARG">     2</i>
    <i type="int" name="INIWAV">     1</i>
   </separator>
   <separator name="electronic spin" >
    <i type="int" name="ISPIN">     2</i>
    <i type="logical" name="LNONCOLLINEAR"> F  </i>
    <v name="MAGMOM">      1.26000000      1.26000000      0.60000000      0.60000000      0.60000000      0.60000000      0.60000000      0.60000000      0.60000000      0.60000000</v>
    <i name="NUPDOWN">     -1.00000000</i>
    <i type="logical" name="LSORBIT"> F  </i>
    <v name="SAXIS">      0.00000000      0.00000000      1.00000000</v>
    <i type="logical" name="LSPIRAL"> F  </i>
    <v name="QSPIRAL">      0.00000000      0.00000000      0.00000000</v>
    <i type="logical" name="LZEROZ"> F  </i>
   </separator>
   <separator name="electronic exchange-correlation" >
    <i type="logical" name="LASPH"> F  </i>
    <i type="logical" name="LMETAGGA"> F  </i>
   </separator>
   <separator name="electronic convergence" >
    <i type="int" name="NELM">   400</i>
    <i type="int" name="NELMDL">     0</i>
    <i type="int" name="NELMIN">     2</i>
    <i name="ENINI">    520.00000000</i>
    <separator name="electronic convergence detail" >
     <i type="logical" name="LDIAG"> T  </i>
     <i type="logical" name="LSUBROT"> F  </i>
     <i name="WEIMIN">      0.00100000</i>
     <i name="EBREAK">      0.00000052</i>
     <i name="DEPER">      0.30000000</i>
     <i type="int" name="NRMM">     4</i>
     <i name="TIME">      0.40000000</i>
    </separator>
   </separator>
   <separator name="electronic mixer" >
    <i name="AMIX">      0.40000000</i>
    <i name="BMIX">      1.00000000</i>
    <i name="AMIN">      0.01000000</i>
    <i name="AMIX_MAG">      1.60000000</i>
    <i name="BMIX_MAG">      1.00000000</i>
    <separator name="electronic mixer details" >
     <i type="int" name="IMIX">     4</i>
     <i type="logical" name="MIXFIRST"> F  </i>
     <i type="int" name="MAXMIX">   -45</i>
     <i name="WC">    100.00000000</i>
     <i type="int" name="INIMIX">     1</i>
     <i type="int" name="MIXPRE">     1</i>
     <i type="int" name="MREMOVE">     5</i>
    </separator>
   </separator>
   <separator name="electronic dipolcorrection" >
    <i type="logical" name="LDIPOL"> F  </i>
    <i type="logical" name="LMONO"> F  </i>
    <i type="int" name="IDIPOL">     0</i>
    <i name="EPSILON">      1.00000000</i>
    <v name="DIPOL">   -100.00000000   -100.00000000   -100.00000000</v>
    <i name="EFIELD">      0.00000000</i>
   </separator>
  </separator>
  <separator name="grids" >
   <i type="int" name="NGX">    54</i>
   <i type="int" name="NGY">    54</i>
   <i type="int" name="NGZ">   180</i>
   <i type="int" name="NGXF">   108</i>
   <i type="int" name="NGYF">   108</i>
   <i type="int" name="NGZF">   360</i>
   <i type="logical" name="ADDGRID"> F  </i>
  </separator>
  <separator name="ionic" >
   <i type="int" name="NSW">    99</i>
   <i type="int" name="IBRION">     2</i>
   <i type="int" name="MDALGO">     0</i>
   <i type="int" name="ISIF">     3</i>
   <i name="PSTRESS">      0.00000000</i>
   <i name="EDIFFG">      0.00100000</i>
   <i type="int" name="NFREE">     1</i>
   <i name="POTIM">      0.50000000</i>
   <i name="SMASS">     -3.00000000</i>
   <i name="SCALEE">      1.00000000</i>
  </separator>
  <separator name="ionic md" >
   <i name="TEBEG">      0.00010000</i>
   <i name="TEEND">      0.00010000</i>
   <i type="int" name="NBLOCK">     1</i>
   <i type="int" name="KBLOCK">    99</i>
   <i type="int" name="NPACO">   256</i>
   <i name="APACO">     16.00000000</i>
  </separator>
  <separator name="symmetry" >
   <i type="int" name="ISYM">     2</i>
   <i name="SYMPREC">      0.00001000</i>
  </separator>
  <separator name="dos" >
   <i type="int" name="LORBIT">    11</i>
   <v name="RWIGS">     -1.00000000     -1.00000000     -1.00000000     -1.00000000</v>
   <i type="int" name="NEDOS">   301</i>
   <i name="EMIN">     10.00000000</i>
   <i name="EMAX">    -10.00000000</i>
   <i name="EFERMI">      0.00000000</i>
  </separator>
  <separator name="writing" >
   <i type="int" name="NWRITE">     2</i>
   <i type="logical" name="LWAVE"> F  </i>
   <i type="logical" name="LDOWNSAMPLE"> F  </i>
   <i type="logical" name="LCHARG"> T  </i>
   <i type="logical" name="LPARD"> F  </i>
   <i type="logical" name="LVTOT"> F  </i>
   <i type="logical" name="LVHAR"> F  </i>
   <i type="logical" name="LELF"> F  </i>
   <i type="logical" name="LOPTICS"> F  </i>
   <v name="STM">      0.00000000      0.00000000      0.00000000      0.00000000      0.00000000      0.00000000      0.00000000</v>
  </separator>
  <separator name="performance" >
   <i type="int" name="NPAR">    16</i>
   <i type="int" name="NSIM">     4</i>
   <i type="int" name="NBLK">    -1</i>
   <i type="logical" name="LPLANE"> T  </i>
   <i type="logical" name="LSCALAPACK"> T  </i>
   <i type="logical" name="LSCAAWARE"> F  </i>
   <i type="logical" name="LSCALU"> F  </i>
   <i type="logical" name="LASYNC"> F  </i>
   <i type="logical" name="LORBITALREAL"> F  </i>
  </separator>
  <separator name="miscellaneous" >
   <i type="int" name="IDIOT">     3</i>
   <i type="int" name="ISPECIAL">     0</i>
   <i type="logical" name="LMUSIC"> F  </i>
   <v name="POMASS">     58.69000000     28.08500000     30.97400000     32.06600000</v>
   <v name="DARWINR">      0.00000000      0.00000000      0.00000000      0.00000000</v>
   <v name="DARWINV">      1.00000000      1.00000000      1.00000000      1.00000000</v>
   <i type="logical" name="LCORR"> T  </i>
  </separator>
  <i type="logical" name="GGA_COMPAT"> T  </i>
  <i type="logical" name="LBERRY"> F  </i>
  <i type="int" name="ICORELEVEL">     0</i>
  <i type="logical" name="LDAU"> F  </i>
  <i type="int" name="I_CONSTRAINED_M">     0</i>
  <separator name="electronic exchange-correlation" >
   <i type="string" name="GGA">BO</i>
   <i type="int" name="VOSKOWN">     0</i>
   <i type="logical" name="LHFCALC"> F  </i>
   <i type="string" name="PRECFOCK"></i>
   <i type="logical" name="LSYMGRAD"> F  </i>
   <i type="logical" name="LHFONE"> F  </i>
   <i type="logical" name="LRHFCALC"> F  </i>
   <i type="logical" name="LTHOMAS"> F  </i>
   <i type="logical" name="LMODELHF"> F  </i>
   <i name="ENCUT4O">     -1.00000000</i>
   <i type="int" name="EXXOEP">     0</i>
   <i type="int" name="FOURORBIT">     0</i>
   <i name="AEXX">      0.00000000</i>
   <i name="HFALPHA">      0.00000000</i>
   <i name="MCALPHA">      0.00000000</i>
   <i name="ALDAX">      1.00000000</i>
   <i name="AGGAX">      1.00000000</i>
   <i name="ALDAC">      1.00000000</i>
   <i name="AGGAC">      0.00000000</i>
   <i type="int" name="NKREDX">     1</i>
   <i type="int" name="NKREDY">     1</i>
   <i type="int" name="NKREDZ">     1</i>
   <i type="logical" name="SHIFTRED"> F  </i>
   <i type="logical" name="ODDONLY"> F  </i>
   <i type="logical" name="EVENONLY"> F  </i>
   <i type="int" name="LMAXFOCK">     0</i>
   <i type="int" name="NMAXFOCKAE">     0</i>
   <i type="logical" name="LFOCKAEDFT"> F  </i>
   <i name="HFSCREEN">      0.00000000</i>
   <i name="HFSCREENC">      0.00000000</i>
   <i type="int" name="NBANDSGWLOW">     0</i>
  </separator>
  <separator name="vdW DFT" >
   <i type="logical" name="LUSE_VDW"> T  </i>
   <i name="Zab_VDW">     -0.84910000</i>
   <i name="PARAM1">      0.18333333</i>
   <i name="PARAM2">      0.22000000</i>
   <i name="PARAM3">      0.00000000</i>
  </separator>
  <separator name="model GW" >
   <i type="int" name="MODEL_GW">     0</i>
   <i name="MODEL_EPS0">     58.13010116</i>
   <i name="MODEL_ALPHA">      1.00000000</i>
  </separator>
  <separator name="linear response parameters" >
   <i type="logical" name="LEPSILON"> F  </i>
   <i type="logical" name="LRPA"> F  </i>
   <i type="logical" name="LNABLA"> F  </i>
   <i type="logical" name="LVEL"> F  </i>
   <i type="int" name="KINTER">     0</i>
   <i name="CSHIFT">      0.10000000</i>
   <i name="OMEGAMAX">     -1.00000000</i>
   <i name="DEG_THRESHOLD">      0.00200000</i>
   <i name="RTIME">     -0.10000000</i>
   <i name="WPLASMAI">      0.00000000</i>
   <v name="DFIELD">      0.00000000      0.00000000      0.00000000</v>
   <v name="WPLASMA">      0.00000000      0.00000000      0.00000000      0.00000000      0.00000000      0.00000000      0.00000000      0.00000000      0.00000000</v>
  </separator>
  <separator name="orbital magnetization" >
   <i type="logical" name="NUCIND"> F  </i>
   <v name="MAGPOS">      0.00000000      0.00000000      0.00000000</v>
   <i type="logical" name="LNICSALL"> T  </i>
   <i type="logical" name="ORBITALMAG"> F  </i>
   <i type="logical" name="LMAGBLOCH"> F  </i>
   <i type="logical" name="LCHIMAG"> F  </i>
   <i type="logical" name="LGAUGE"> T  </i>
   <i type="int" name="MAGATOM">     0</i>
   <v name="MAGDIPOL">      0.00000000      0.00000000      0.00000000</v>
   <v name="AVECCONST">      0.00000000      0.00000000      0.00000000</v>
  </separator>
  <separator name="response functions" >
   <i type="logical" name="LADDER"> F  </i>
   <i type="logical" name="LRPAFORCE"> F  </i>
   <i type="logical" name="LFXC"> F  </i>
   <i type="logical" name="LHARTREE"> T  </i>
   <i type="int" name="IBSE">     0</i>
   <v type="int" name="KPOINT">    -1     0     0     0</v>
   <i type="logical" name="LTCTE"> F  </i>
   <i type="logical" name="LTETE"> F  </i>
   <i type="logical" name="LTRIPLET"> F  </i>
   <i type="logical" name="LFXCEPS"> F  </i>
   <i type="logical" name="LFXHEG"> F  </i>
   <i type="int" name="NATURALO">     2</i>
   <i type="logical" name="L2ORDER"> F  </i>
   <i type="logical" name="LMP2LT"> F  </i>
   <i type="logical" name="LUSEW"> F  </i>
   <i name="ENCUTGW">     -2.00000000</i>
   <i name="ENCUTGWSOFT">     -2.00000000</i>
   <i name="ENCUTLF">     -1.00000000</i>
   <i type="int" name="LMAXMP2">    -1</i>
   <i name="SCISSOR">      0.00000000</i>
   <i type="int" name="NOMEGA">     0</i>
   <i type="int" name="NOMEGAR">     0</i>
   <i type="int" name="NBANDSGW">    -1</i>
   <i type="int" name="NBANDSO">    -1</i>
   <i type="int" name="NBANDSV">    -1</i>
   <i type="int" name="NELM">   400</i>
   <i type="int" name="NELMHF">     1</i>
   <i type="int" name="DIM">     3</i>
   <i type="int" name="ANTIRES">     0</i>
   <i name="OMEGAMAX">    -30.00000000</i>
   <i name="OMEGAMIN">    -30.00000000</i>
   <i name="OMEGATL">   -200.00000000</i>
   <i type="int" name="OMEGAGRID">   140</i>
   <i name="CSHIFT">     -0.10000000</i>
   <i type="logical" name="SELFENERGY"> F  </i>
   <i type="logical" name="LSPECTRAL"> F  </i>
   <i type="logical" name="LSPECTRALGW"> F  </i>
   <i type="logical" name="LSINGLES"> F  </i>
   <i type="logical" name="LFERMIGW"> F  </i>
   <i type="logical" name="ODDONLYGW"> F  </i>
   <i type="logical" name="EVENONLYGW"> F  </i>
   <i type="int" name="NKREDLFX">     1</i>
   <i type="int" name="NKREDLFY">     1</i>
   <i type="int" name="NKREDLFZ">     1</i>
   <i type="int" name="MAXMEM">  2800</i>
   <i type="int" name="TELESCOPE">     0</i>
   <i type="int" name="TAUPAR">     1</i>
   <i type="int" name="OMEGAPAR">    -1</i>
   <i name="LAMBDA">      1.00000000</i>
  </separator>
  <separator name="External order field" >
   <i name="OFIELD_KAPPA">      0.00000000</i>
   <v name="OFIELD_K">      0.00000000      0.00000000      0.00000000</v>
   <i name="OFIELD_Q6_NEAR">      0.00000000</i>
   <i name="OFIELD_Q6_FAR">      0.00000000</i>
   <i name="OFIELD_A">      0.00000000</i>
  </separator>
 </parameters>
 <atominfo>
  <atoms>      10 </atoms>
  <types>       4 </types>
  <array name="atoms" >
   <dimension dim="1">ion</dimension>
   <field type="string">element</field>
   <field type="int">atomtype</field>
   <set>
    <rc><c>Ni</c><c>   1</c></rc>
    <rc><c>Ni</c><c>   1</c></rc>
    <rc><c>Si</c><c>   2</c></rc>
    <rc><c>P </c><c>   3</c></rc>
    <rc><c>S </c><c>   4</c></rc>
    <rc><c>S </c><c>   4</c></rc>
    <rc><c>S </c><c>   4</c></rc>
    <rc><c>S </c><c>   4</c></rc>
    <rc><c>S </c><c>   4</c></rc>
    <rc><c>S </c><c>   4</c></rc>
   </set>
  </array>
  <array name="atomtypes" >
   <dimension dim="1">type</dimension>
   <field type="int">atomspertype</field>
   <field type="string">element</field>
   <field>mass</field>
   <field>valence</field>
   <field type="string">pseudopotential</field>
   <set>
    <rc><c>   2</c><c>Ni</c><c>     58.69000000</c><c>     10.00000000</c><c> PAW_PBE Ni 06Sep2000                   </c></rc>
    <rc><c>   1</c><c>Si</c><c>     28.08500000</c><c>      4.00000000</c><c> PAW_PBE Si 05Jan2001                   </c></rc>
    <rc><c>   1</c><c>P </c><c>     30.97400000</c><c>      5.00000000</c><c>  PAW_PBE P 17Jan2003                   </c></rc>
    <rc><c>   6</c><c>S </c><c>     32.06600000</c><c>      6.00000000</c><c>  PAW_PBE S 17Jan2003                   </c></rc>
   </set>
  </array>
 </atominfo>
 <structure name="initialpos" >
  <crystal>
   <varray name="basis" >
    <v>       6.90777700      -0.00000000       0.00000000 </v>
    <v>       3.45388800       5.98231000       0.00000000 </v>
    <v>       0.00000000       0.00000000      23.44458800 </v>
   </varray>
   <i name="volume">    968.83501932 </i>
   <varray name="rec_basis" >
    <v>       0.14476437      -0.08357974       0.00000000 </v>
    <v>       0.00000000       0.16715951      -0.00000000 </v>
    <v>      -0.00000000       0.00000000       0.04265377 </v>
   </varray>
  </crystal>
  <varray name="positions" >
   <v>       0.33333300       0.33333300       0.49992500 </v>
   <v>       0.66666700       0.66666700       0.50007500 </v>
   <v>       0.00000000       0.00000000       0.44821600 </v>
   <v>       0.00000000       0.00000000       0.55178400 </v>
   <v>       0.62635700       0.00042000       0.57375200 </v>
   <v>       0.00042000       0.37322400       0.57375200 </v>
   <v>       0.37322400       0.62635700       0.57375200 </v>
   <v>       0.37364300       0.99958000       0.42624800 </v>
   <v>       0.99958000       0.62677600       0.42624800 </v>
   <v>       0.62677600       0.37364300       0.42624800 </v>
  </varray>
  <varray name="selective"  type="logical" >
   <v type="logical" >  T  T  T </v>
   <v type="logical" >  T  T  T </v>
   <v type="logical" >  T  T  T </v>
   <v type="logical" >  T  T  T </v>
   <v type="logical" >  T  T  T </v>
   <v type="logical" >  T  T  T </v>
   <v type="logical" >  T  T  T </v>
   <v type="logical" >  T  T  T </v>
   <v type="logical" >  T  T  T </v>
   <v type="logical" >  T  T  T </v>
  </varray>
  <nose>
   <v>      -3.00000000       0.00000000       0.00010000       0.00010000 </v>
  </nose>
 </structure>
 <calculation>
  <scstep>
   <time name="dav">   22.31   22.43</time>
   <time name="total">   73.56   75.26</time>
   <energy>
    <i name="alphaZ">     25.56480543 </i>
    <i name="ewald">   8338.88239735 </i>
    <i name="hartreedc"> -12044.38930560 </i>
    <i name="XCdc">    119.79009374 </i>
    <i name="pawpsdc">   2416.54608399 </i>
    <i name="pawaedc">  -2500.13549756 </i>
    <i name="eentropy">      0.00000000 </i>
    <i name="bandstr">    -45.96825885 </i>
    <i name="atom">   4110.95894311 </i>
    <i name="e_fr_energy">    421.24926162 </i>
    <i name="e_wo_entrp">    421.24926162 </i>
    <i name="e_0_energy">    421.24926162 </i>
   </energy>
  </scstep>
  <scstep>
   <time name="dav">   32.40   32.46</time>
   <time name="total">   32.40   32.47</time>
   <energy>
    <i name="e_fr_energy">     33.93618511 </i>
    <i name="e_wo_entrp">     33.93618511 </i>
    <i name="e_0_energy">     33.93618511 </i>
   </energy>
  </scstep>
  <scstep>
   <time name="dav">   28.71   28.74</time>
   <time name="total">   28.72   28.74</time>
   <energy>
    <i name="e_fr_energy">    -40.42974817 </i>
    <i name="e_wo_entrp">    -40.42974817 </i>
    <i name="e_0_energy">    -40.42974817 </i>
   </energy>
  </scstep>
  <scstep>
   <time name="dav">   25.68   25.72</time>
   <time name="total">   25.69   25.73</time>
   <energy>
    <i name="e_fr_energy">    -43.27452194 </i>
    <i name="e_wo_entrp">    -43.27452194 </i>
    <i name="e_0_energy">    -43.27452194 </i>
   </energy>
  </scstep>
  <scstep>
   <time name="dav">   30.26   30.37</time>
   <time name="total">   32.43   32.55</time>
   <energy>
    <i name="e_fr_energy">    -43.35788016 </i>
    <i name="e_wo_entrp">    -43.35788016 </i>
    <i name="e_0_energy">    -43.35788016 </i>
   </energy>
  </scstep>
  <scstep>
   <time name="dav">   29.65   29.85</time>
   <time name="total">   84.08   84.63</time>
   <energy>
    <i name="e_fr_energy">   -103.91378425 </i>
    <i name="e_wo_entrp">   -103.91378425 </i>
    <i name="e_0_energy">   -103.91378425 </i>
   </energy>
  </scstep>
  <scstep>
   <time name="dav">   25.54   25.70</time>
   <time name="total">   80.02   80.26</time>
   <energy>
    <i name="e_fr_energy">    -53.14989758 </i>
    <i name="e_wo_entrp">    -53.14989758 </i>
    <i name="e_0_energy">    -53.14989758 </i>
   </energy>
  </scstep>
  <scstep>
   <time name="dav">   27.09   27.77</time>
   <time name="total">   81.07   81.98</time>
   <energy>
    <i name="e_fr_energy">    -39.19621606 </i>
    <i name="e_wo_entrp">    -39.19621606 </i>
    <i name="e_0_energy">    -39.19621606 </i>
   </energy>
  </scstep>
  <scstep>
   <time name="dav">   32.64   33.15</time>
   <time name="total">   85.45   87.37</time>
   <energy>
    <i name="e_fr_energy">    -35.80788105 </i>
    <i name="e_wo_entrp">    -35.80788105 </i>
    <i name="e_0_energy">    -35.80788105 </i>
   </energy>
  </scstep>
  <scstep>
   <time name="dav">   23.98   24.29</time>
   <time name="total">   77.26   78.15</time>
   <energy>
    <i name="e_fr_energy">    -35.07585505 </i>
    <i name="e_wo_entrp">    -35.07585505 </i>
    <i name="e_0_energy">    -35.07585505 </i>
   </energy>
  </scstep>
  <scstep>
   <time name="dav">   29.20   29.22</time>
   <time name="total">   82.70   82.94</time>
   <energy>
    <i name="e_fr_energy">    -35.42802143 </i>
    <i name="e_wo_entrp">    -35.42802143 </i>
    <i name="e_0_energy">    -35.42802143 </i>
   </energy>
  </scstep>
  <scstep>
   <time name="dav">   28.89   29.02</time>
   <time name="total">   82.92   83.07</time>
   <energy>
    <i name="e_fr_energy">    -35.43967092 </i>
    <i name="e_wo_entrp">    -35.43967092 </i>
    <i name="e_0_energy">    -35.43967092 </i>
   </energy>
  </scstep>
  <scstep>
   <time name="dav">   27.16   27.35</time>
   <time name="total">   80.38   80.62</time>
   <energy>
    <i name="e_fr_energy">    -35.43497621 </i>
    <i name="e_wo_entrp">    -35.43497621 </i>
    <i name="e_0_energy">    -35.43497621 </i>
   </energy>
  </scstep>
  <scstep>
   <time name="dav">   26.05   26.11</time>
   <time name="total">   79.15   79.94</time>
   <energy>
    <i name="e_fr_energy">    -35.43475747 </i>
    <i name="e_wo_entrp">    -35.43475747 </i>
    <i name="e_0_energy">    -35.43475747 </i>
   </energy>
  </scstep>
  <scstep>
   <time name="dav">   27.65   27.76</time>
   <time name="total">   80.70   80.86</time>
   <energy>
    <i name="e_fr_energy">    -35.43414819 </i>
    <i name="e_wo_entrp">    -35.43414819 </i>
    <i name="e_0_energy">    -35.43414819 </i>
   </energy>
  </scstep>
  <scstep>
   <time name="dav">   26.35   26.39</time>
   <time name="total">   79.35   79.49</time>
   <energy>
    <i name="e_fr_energy">    -35.46266318 </i>
    <i name="e_wo_entrp">    -35.46266318 </i>
    <i name="e_0_energy">    -35.46266318 </i>
   </energy>
  </scstep>
  <scstep>
   <time name="dav">   26.69   26.97</time>
   <time name="total">   79.64   80.02</time>
   <energy>
    <i name="e_fr_energy">    -35.44603293 </i>
    <i name="e_wo_entrp">    -35.44603293 </i>
    <i name="e_0_energy">    -35.44603293 </i>
   </energy>
  </scstep>
  <scstep>
   <time name="dav">   30.07   30.27</time>
   <time name="total">   83.04   83.48</time>
   <energy>
    <i name="e_fr_energy">    -35.34252543 </i>
    <i name="e_wo_entrp">    -35.34252543 </i>
    <i name="e_0_energy">    -35.34252543 </i>
   </energy>
  </scstep>
  <scstep>
   <time name="dav">   24.00   24.08</time>
   <time name="total">   76.90   77.20</time>
   <energy>
    <i name="e_fr_energy">    -35.30004280 </i>
    <i name="e_wo_entrp">    -35.30004280 </i>
    <i name="e_0_energy">    -35.30004280 </i>
   </energy>
  </scstep>
  <scstep>
   <time name="dav">   24.12   24.15</time>
   <time name="total">   77.15   77.41</time>
   <energy>
    <i name="e_fr_energy">    -35.30413009 </i>
    <i name="e_wo_entrp">    -35.30413009 </i>
    <i name="e_0_energy">    -35.30413009 </i>
   </energy>
  </scstep>
  <scstep>
   <time name="dav">   28.03   28.06</time>
   <time name="total">   81.06   81.21</time>
   <energy>
    <i name="e_fr_energy">    -35.03223056 </i>
    <i name="e_wo_entrp">    -35.03223056 </i>
    <i name="e_0_energy">    -35.03223056 </i>
   </energy>
  </scstep>
  <scstep>
   <time name="dav">   28.77   28.88</time>
   <time name="total">   81.91   82.06</time>
   <energy>
    <i name="e_fr_energy">    -34.46234389 </i>
    <i name="e_wo_entrp">    -34.46234389 </i>
    <i name="e_0_energy">    -34.46234389 </i>
   </energy>
  </scstep>
  <scstep>
   <time name="dav">   33.73   33.96</time>
   <time name="total">   86.47   87.13</time>
   <energy>
    <i name="e_fr_energy">    -58.18139657 </i>
    <i name="e_wo_entrp">    -58.18139657 </i>
    <i name="e_0_energy">    -58.18139657 </i>
   </energy>
  </scstep>
  <scstep>
   <time name="dav">   23.70   23.73</time>
   <time name="total">   76.77   76.85</time>
   <energy>
    <i name="e_fr_energy">    -33.91215060 </i>
    <i name="e_wo_entrp">    -33.91215060 </i>
    <i name="e_0_energy">    -33.91215060 </i>
   </energy>
  </scstep>
  <scstep>
   <time name="dav">   26.28   26.52</time>
   <time name="total">   79.02   79.49</time>
   <energy>
    <i name="e_fr_energy">    -33.83788143 </i>
    <i name="e_wo_entrp">    -33.83788143 </i>
    <i name="e_0_energy">    -33.83788143 </i>
   </energy>
  </scstep>
  <scstep>
   <time name="dav">   22.35   22.40</time>
   <time name="total">   75.09   75.51</time>
   <energy>
    <i name="e_fr_energy">    -33.94350896 </i>
    <i name="e_wo_entrp">    -33.94350896 </i>
    <i name="e_0_energy">    -33.94350896 </i>
   </energy>
  </scstep>
  <scstep>
   <time name="dav">   23.32   23.48</time>
   <time name="total">   76.18   76.50</time>
   <energy>
    <i name="e_fr_energy">    -33.96700416 </i>
    <i name="e_wo_entrp">    -33.96700416 </i>
    <i name="e_0_energy">    -33.96700416 </i>
   </energy>
  </scstep>
  <scstep>
   <time name="dav">   30.00   30.26</time>
   <time name="total">   82.90   83.35</time>
   <energy>
    <i name="e_fr_energy">    -33.90654385 </i>
    <i name="e_wo_entrp">    -33.90654385 </i>
    <i name="e_0_energy">    -33.90654385 </i>
   </energy>
  </scstep>
  <scstep>
   <time name="dav">   30.32   30.50</time>
   <time name="total">   83.42   83.80</time>
   <energy>
    <i name="e_fr_energy">    -34.67192579 </i>
    <i name="e_wo_entrp">    -34.67192579 </i>
    <i name="e_0_energy">    -34.67192579 </i>
   </energy>
  </scstep>
  <scstep>
   <time name="dav">   24.65   24.99</time>
   <time name="total">   77.33   78.33</time>
   <energy>
    <i name="e_fr_energy">    -34.70785182 </i>
    <i name="e_wo_entrp">    -34.70785182 </i>
    <i name="e_0_energy">    -34.70785182 </i>
   </energy>
  </scstep>
  <scstep>
   <time name="dav">   25.56   25.59</time>
   <time name="total">   78.62   78.68</time>
   <energy>
    <i name="e_fr_energy">    -35.26668105 </i>
    <i name="e_wo_entrp">    -35.26668105 </i>
    <i name="e_0_energy">    -35.26668105 </i>
   </energy>
  </scstep>
  <scstep>
   <time name="dav">   27.55   27.59</time>
   <time name="total">   80.63   80.73</time>
   <energy>
    <i name="e_fr_energy">    -35.20648497 </i>
    <i name="e_wo_entrp">    -35.20648497 </i>
    <i name="e_0_energy">    -35.20648497 </i>
   </energy>
  </scstep>
  <scstep>
   <time name="dav">   32.08   32.19</time>
   <time name="total">   85.17   85.37</time>
   <energy>
    <i name="e_fr_energy">    -35.35647261 </i>
    <i name="e_wo_entrp">    -35.35647261 </i>
    <i name="e_0_energy">    -35.35647261 </i>
   </energy>
  </scstep>
  <scstep>
   <time name="dav">   29.85   29.94</time>
   <time name="total">   82.76   83.09</time>
   <energy>
    <i name="e_fr_energy">    -34.63088716 </i>
    <i name="e_wo_entrp">    -34.63088716 </i>
    <i name="e_0_energy">    -34.63088716 </i>
   </energy>
  </scstep>
  <scstep>
   <time name="dav">   29.72   29.85</time>
   <time name="total">   82.72   82.93</time>
   <energy>
    <i name="e_fr_energy">    -35.12510774 </i>
    <i name="e_wo_entrp">    -35.12510774 </i>
    <i name="e_0_energy">    -35.12510774 </i>
   </energy>
  </scstep>
  <scstep>
   <time name="dav">   27.80   28.14</time>
   <time name="total">   80.56   81.29</time>
   <energy>
    <i name="e_fr_energy">    -79.68221530 </i>
    <i name="e_wo_entrp">    -79.68221530 </i>
    <i name="e_0_energy">    -79.68221530 </i>
   </energy>
  </scstep>
  <scstep>
   <time name="dav">   28.92   29.06</time>
   <time name="total">   81.53   82.33</time>
   <energy>
    <i name="e_fr_energy">   -118.62820210 </i>
    <i name="e_wo_entrp">   -118.62820210 </i>
    <i name="e_0_energy">   -118.62820210 </i>
   </energy>
  </scstep>
  <scstep>
   <time name="dav">   22.02   22.06</time>
   <time name="total">   75.01   75.29</time>
   <energy>
    <i name="e_fr_energy">    -35.13473474 </i>
    <i name="e_wo_entrp">    -35.13473474 </i>
    <i name="e_0_energy">    -35.13473474 </i>
   </energy>
  </scstep>
  <scstep>
   <time name="dav">   23.63   23.72</time>
   <time name="total">   76.62   76.79</time>
   <energy>
    <i name="e_fr_energy">    -35.60903255 </i>
    <i name="e_wo_entrp">    -35.60903255 </i>
    <i name="e_0_energy">    -35.60903255 </i>
   </energy>
  </scstep>
  <scstep>
   <time name="dav">   25.93   26.04</time>
   <time name="total">   79.10   79.30</time>
   <energy>
    <i name="e_fr_energy">    -35.54140236 </i>
    <i name="e_wo_entrp">    -35.54140236 </i>
    <i name="e_0_energy">    -35.54140236 </i>
   </energy>
  </scstep>
  <scstep>
   <time name="dav">   27.20   27.34</time>
   <time name="total">   80.06   80.53</time>
   <energy>
    <i name="e_fr_energy">    -35.58660985 </i>
    <i name="e_wo_entrp">    -35.58660985 </i>
    <i name="e_0_energy">    -35.58660985 </i>
   </energy>
  </scstep>
  <scstep>
   <time name="dav">   26.24   26.52</time>
   <time name="total">   79.37   79.70</time>
   <energy>
    <i name="e_fr_energy">    -35.60987170 </i>
    <i name="e_wo_entrp">    -35.60987170 </i>
    <i name="e_0_energy">    -35.60987170 </i>
   </energy>
  </scstep>
  <scstep>
   <time name="dav">   30.61   30.95</time>
   <time name="total">   83.62   84.26</time>
   <energy>
    <i name="e_fr_energy">    -35.59840461 </i>
    <i name="e_wo_entrp">    -35.59840461 </i>
    <i name="e_0_energy">    -35.59840461 </i>
   </energy>
  </scstep>
  <scstep>
   <time name="dav">   29.72   30.11</time>
   <time name="total">   82.45   83.51</time>
   <energy>
    <i name="e_fr_energy">    -43.12209979 </i>
    <i name="e_wo_entrp">    -43.12209979 </i>
    <i name="e_0_energy">    -43.12209979 </i>
   </energy>
  </scstep>
  <scstep>
   <time name="dav">   24.59   24.81</time>
   <time name="total">   77.20   77.99</time>
   <energy>
    <i name="e_fr_energy">    -34.46427155 </i>
    <i name="e_wo_entrp">    -34.46427155 </i>
    <i name="e_0_energy">    -34.46427155 </i>
   </energy>
  </scstep>
  <scstep>
   <time name="dav">   32.32   32.38</time>
   <time name="total">   85.50   85.69</time>
   <energy>
    <i name="e_fr_energy">   -324.92994189 </i>
    <i name="e_wo_entrp">   -324.92994189 </i>
    <i name="e_0_energy">   -324.92994189 </i>
   </energy>
  </scstep>
  <scstep>
   <time name="dav">   23.62   23.70</time>
   <time name="total">   76.74   76.91</time>
   <energy>
    <i name="e_fr_energy">    -34.31297399 </i>
    <i name="e_wo_entrp">    -34.31297399 </i>
    <i name="e_0_energy">    -34.31297399 </i>
   </energy>
  </scstep>
  <scstep>
   <time name="dav">   24.23   24.38</time>
   <time name="total">   77.22   77.58</time>
   <energy>
    <i name="e_fr_energy">    -35.35346710 </i>
    <i name="e_wo_entrp">    -35.35346710 </i>
    <i name="e_0_energy">    -35.35346710 </i>
   </energy>
  </scstep>
  <scstep>
   <time name="dav">   25.12   25.39</time>
   <time name="total">   78.36   78.79</time>
   <energy>
    <i name="e_fr_energy">    -35.58406523 </i>
    <i name="e_wo_entrp">    -35.58406523 </i>
    <i name="e_0_energy">    -35.58406523 </i>
   </energy>
  </scstep>
  <scstep>
   <time name="dav">   26.56   26.75</time>
   <time name="total">   79.95   80.35</time>
   <energy>
    <i name="e_fr_energy">    -35.56609008 </i>
    <i name="e_wo_entrp">    -35.56609008 </i>
    <i name="e_0_energy">    -35.56609008 </i>
   </energy>
  </scstep>
  <scstep>
   <time name="dav">   27.39   27.66</time>
   <time name="total">   80.72   81.05</time>
   <energy>
    <i name="e_fr_energy">    -35.16583613 </i>
    <i name="e_wo_entrp">    -35.16583613 </i>
    <i name="e_0_energy">    -35.16583613 </i>
   </energy>
  </scstep>
  <scstep>
   <time name="dav">   26.18   26.35</time>
   <time name="total">   79.35   79.67</time>
   <energy>
    <i name="e_fr_energy">    -35.22783746 </i>
    <i name="e_wo_entrp">    -35.22783746 </i>
    <i name="e_0_energy">    -35.22783746 </i>
   </energy>
  </scstep>
  <scstep>
   <time name="dav">   27.82   27.87</time>
   <time name="total">   80.52   81.73</time>
   <energy>
    <i name="e_fr_energy">    -35.30323134 </i>
    <i name="e_wo_entrp">    -35.30323134 </i>
    <i name="e_0_energy">    -35.30323134 </i>
   </energy>
  </scstep>
  <scstep>
   <time name="dav">   30.44   30.55</time>
   <time name="total">   83.86   84.05</time>
   <energy>
    <i name="e_fr_energy">    -35.32625043 </i>
    <i name="e_wo_entrp">    -35.32625043 </i>
    <i name="e_0_energy">    -35.32625043 </i>
   </energy>
  </scstep>
  <scstep>
   <time name="dav">   30.58   30.80</time>
   <time name="total">   83.80   84.26</time>
   <energy>
    <i name="e_fr_energy">   -197.72997326 </i>
    <i name="e_wo_entrp">   -197.72997326 </i>
    <i name="e_0_energy">   -197.72997326 </i>
   </energy>
  </scstep>
  <scstep>
   <time name="dav">   30.89   31.10</time>
   <time name="total">   84.01   84.42</time>
   <energy>
    <i name="e_fr_energy">   -800.85682295 </i>
    <i name="e_wo_entrp">   -800.85682295 </i>
    <i name="e_0_energy">   -800.85682295 </i>
   </energy>
  </scstep>
  <scstep>
   <time name="dav">   30.04   30.16</time>
   <time name="total">   83.19   83.57</time>
   <energy>
    <i name="e_fr_energy">   -136.59647126 </i>
    <i name="e_wo_entrp">   -136.59647126 </i>
    <i name="e_0_energy">   -136.59647126 </i>
   </energy>
  </scstep>
  <scstep>
   <time name="dav">   32.39   32.71</time>
   <time name="total">   85.70   86.23</time>
   <energy>
    <i name="e_fr_energy">  -1202.32078892 </i>
    <i name="e_wo_entrp">  -1202.32078892 </i>
    <i name="e_0_energy">  -1202.32078892 </i>
   </energy>
  </scstep>
  <scstep>
   <time name="dav">   27.08   27.39</time>
   <time name="total">   80.00   80.80</time>
   <energy>
    <i name="e_fr_energy">    -81.64423222 </i>
    <i name="e_wo_entrp">    -81.64423222 </i>
    <i name="e_0_energy">    -81.64423222 </i>
   </energy>
  </scstep>
  <scstep>
   <time name="dav">   22.94   23.12</time>
   <time name="total">   75.84   76.47</time>
   <energy>
    <i name="e_fr_energy">    -34.50957901 </i>
    <i name="e_wo_entrp">    -34.50957901 </i>
    <i name="e_0_energy">    -34.50957901 </i>
   </energy>
  </scstep>
  <scstep>
   <time name="dav">   27.81   27.91</time>
   <time name="total">   81.11   81.39</time>
   <energy>
    <i name="e_fr_energy">    -41.11804354 </i>
    <i name="e_wo_entrp">    -41.11804354 </i>
    <i name="e_0_energy">    -41.11804354 </i>
   </energy>
  </scstep>
  <scstep>
   <time name="dav">   28.67   28.76</time>
   <time name="total">   81.86   82.14</time>
   <energy>
    <i name="e_fr_energy">    -39.01314298 </i>
    <i name="e_wo_entrp">    -39.01314298 </i>
    <i name="e_0_energy">    -39.01314298 </i>
   </energy>
  </scstep>
  <scstep>
   <time name="dav">   26.07   26.29</time>
   <time name="total">   79.12   79.70</time>
   <energy>
    <i name="e_fr_energy">    -34.93066902 </i>
    <i name="e_wo_entrp">    -34.93066902 </i>
    <i name="e_0_energy">    -34.93066902 </i>
   </energy>
  </scstep>
  <scstep>
   <time name="dav">   24.20   24.32</time>
   <time name="total">   77.36   77.64</time>
   <energy>
    <i name="e_fr_energy">    -34.97796982 </i>
    <i name="e_wo_entrp">    -34.97796982 </i>
    <i name="e_0_energy">    -34.97796982 </i>
   </energy>
  </scstep>
  <scstep>
   <time name="dav">   33.06   33.37</time>
   <time name="total">   86.06   86.64</time>
   <energy>
    <i name="e_fr_energy">   -409.80129010 </i>
    <i name="e_wo_entrp">   -409.80129010 </i>
    <i name="e_0_energy">   -409.80129010 </i>
   </energy>
  </scstep>
  <scstep>
   <time name="dav">   28.80   28.89</time>
   <time name="total">   81.74   82.09</time>
   <energy>
    <i name="e_fr_energy">    -32.88211741 </i>
    <i name="e_wo_entrp">    -32.88211741 </i>
    <i name="e_0_energy">    -32.88211741 </i>
   </energy>
  </scstep>
  <scstep>
   <time name="dav">   30.84   30.90</time>
   <time name="total">   84.11   84.25</time>
   <energy>
    <i name="e_fr_energy">    -58.39585212 </i>
    <i name="e_wo_entrp">    -58.39585212 </i>
    <i name="e_0_energy">    -58.39585212 </i>
   </energy>
  </scstep>
  <scstep>
   <time name="dav">   25.02   25.42</time>
   <time name="total">   77.99   78.70</time>
   <energy>
    <i name="e_fr_energy">    -53.00583800 </i>
    <i name="e_wo_entrp">    -53.00583800 </i>
    <i name="e_0_energy">    -53.00583800 </i>
   </energy>
  </scstep>
  <scstep>
   <time name="dav">   25.57   25.72</time>
   <time name="total">   78.82   79.16</time>
   <energy>
    <i name="e_fr_energy">    -33.88217213 </i>
    <i name="e_wo_entrp">    -33.88217213 </i>
    <i name="e_0_energy">    -33.88217213 </i>
   </energy>
  </scstep>
  <scstep>
   <time name="dav">   26.98   27.28</time>
   <time name="total">   79.94   80.70</time>
   <energy>
    <i name="e_fr_energy">    -34.29999478 </i>
    <i name="e_wo_entrp">    -34.29999478 </i>
    <i name="e_0_energy">    -34.29999478 </i>
   </energy>
  </scstep>
  <scstep>
   <time name="dav">   28.77   28.98</time>
   <time name="total">   81.74   82.22</time>
   <energy>
    <i name="e_fr_energy">    -35.78340453 </i>
    <i name="e_wo_entrp">    -35.78340453 </i>
    <i name="e_0_energy">    -35.78340453 </i>
   </energy>
  </scstep>
  <scstep>
   <time name="dav">   26.02   26.29</time>
   <time name="total">   79.25   79.72</time>
   <energy>
    <i name="e_fr_energy">    -35.67411644 </i>
    <i name="e_wo_entrp">    -35.67411644 </i>
    <i name="e_0_energy">    -35.67411644 </i>
   </energy>
  </scstep>
  <scstep>
   <time name="dav">   25.44   25.59</time>
   <time name="total">   78.71   79.02</time>
   <energy>
    <i name="e_fr_energy">    -35.67802213 </i>
    <i name="e_wo_entrp">    -35.67802213 </i>
    <i name="e_0_energy">    -35.67802213 </i>
   </energy>
  </scstep>
  <scstep>
   <time name="dav">   22.32   22.38</time>
   <time name="total">   75.65   75.97</time>
   <energy>
    <i name="e_fr_energy">    -35.64867777 </i>
    <i name="e_wo_entrp">    -35.64867777 </i>
    <i name="e_0_energy">    -35.64867777 </i>
   </energy>
  </scstep>
  <scstep>
   <time name="dav">   25.53   25.66</time>
   <time name="total">   78.59   79.04</time>
   <energy>
    <i name="e_fr_energy">    -35.65262163 </i>
    <i name="e_wo_entrp">    -35.65262163 </i>
    <i name="e_0_energy">    -35.65262163 </i>
   </energy>
  </scstep>
  <scstep>
   <time name="dav">   28.87   29.28</time>
   <time name="total">   81.84   82.52</time>
   <energy>
    <i name="e_fr_energy">    -35.84504251 </i>
    <i name="e_wo_entrp">    -35.84504251 </i>
    <i name="e_0_energy">    -35.84504251 </i>
   </energy>
  </scstep>
  <scstep>
   <time name="dav">   29.80   29.86</time>
   <time name="total">   82.84   83.11</time>
   <energy>
    <i name="e_fr_energy">    -35.70474321 </i>
    <i name="e_wo_entrp">    -35.70474321 </i>
    <i name="e_0_energy">    -35.70474321 </i>
   </energy>
  </scstep>
  <scstep>
   <time name="dav">   28.30   28.40</time>
   <time name="total">   81.62   81.76</time>
   <energy>
    <i name="e_fr_energy">    -35.69833050 </i>
    <i name="e_wo_entrp">    -35.69833050 </i>
    <i name="e_0_energy">    -35.69833050 </i>
   </energy>
  </scstep>
  <scstep>
   <time name="dav">   27.21   27.29</time>
   <time name="total">   80.28   80.76</time>
   <energy>
    <i name="e_fr_energy">    -35.71467785 </i>
    <i name="e_wo_entrp">    -35.71467785 </i>
    <i name="e_0_energy">    -35.71467785 </i>
   </energy>
  </scstep>
  <scstep>
   <time name="dav">   27.50   27.70</time>
   <time name="total">   80.82   81.21</time>
   <energy>
    <i name="e_fr_energy">    -35.72811059 </i>
    <i name="e_wo_entrp">    -35.72811059 </i>
    <i name="e_0_energy">    -35.72811059 </i>
   </energy>
  </scstep>
  <scstep>
   <time name="dav">   26.80   27.05</time>
   <time name="total">   79.69   80.36</time>
   <energy>
    <i name="e_fr_energy">    -41.93769080 </i>
    <i name="e_wo_entrp">    -41.93769080 </i>
    <i name="e_0_energy">    -41.93769080 </i>
   </energy>
  </scstep>
  <scstep>
   <time name="dav">   23.79   23.95</time>
   <time name="total">   77.05   77.87</time>
   <energy>
    <i name="e_fr_energy">    -35.44099612 </i>
    <i name="e_wo_entrp">    -35.44099612 </i>
    <i name="e_0_energy">    -35.44099612 </i>
   </energy>
  </scstep>
  <scstep>
   <time name="dav">   25.33   25.98</time>
   <time name="total">   79.46   81.74</time>
   <energy>
    <i name="e_fr_energy">    -35.67051603 </i>
    <i name="e_wo_entrp">    -35.67051603 </i>
    <i name="e_0_energy">    -35.67051603 </i>
   </energy>
  </scstep>
  <scstep>
   <time name="dav">   24.06   25.38</time>
   <time name="total">   78.44   80.65</time>
   <energy>
    <i name="e_fr_energy">    -35.70239530 </i>
    <i name="e_wo_entrp">    -35.70239530 </i>
    <i name="e_0_energy">    -35.70239530 </i>
   </energy>
  </scstep>
  <scstep>
   <time name="dav">   32.07   32.54</time>
   <time name="total">   85.01   86.43</time>
   <energy>
    <i name="e_fr_energy">    -76.37204148 </i>
    <i name="e_wo_entrp">    -76.37204148 </i>
    <i name="e_0_energy">    -76.37204148 </i>
   </energy>
  </scstep>
  <scstep>
   <time name="dav">   22.64   23.21</time>
   <time name="total">   76.06   77.01</time>
   <energy>
    <i name="e_fr_energy">    -35.18436051 </i>
    <i name="e_wo_entrp">    -35.18436051 </i>
    <i name="e_0_energy">    -35.18436051 </i>
   </energy>
  </scstep>
  <scstep>
   <time name="dav">   25.17   25.42</time>
   <time name="total">   78.40   79.14</time>
   <energy>
    <i name="e_fr_energy">    -35.61785591 </i>
    <i name="e_wo_entrp">    -35.61785591 </i>
    <i name="e_0_energy">    -35.61785591 </i>
   </energy>
  </scstep>
  <scstep>
   <time name="dav">   26.27   26.36</time>
   <time name="total">   79.62   79.77</time>
   <energy>
    <i name="e_fr_energy">    -35.67244975 </i>
    <i name="e_wo_entrp">    -35.67244975 </i>
    <i name="e_0_energy">    -35.67244975 </i>
   </energy>
  </scstep>
  <scstep>
   <time name="dav">   27.55   27.73</time>
   <time name="total">   80.71   81.20</time>
   <energy>
    <i name="e_fr_energy">    -35.68229787 </i>
    <i name="e_wo_entrp">    -35.68229787 </i>
    <i name="e_0_energy">    -35.68229787 </i>
   </energy>
  </scstep>
  <scstep>
   <time name="dav">   25.68   26.12</time>
   <time name="total">   78.80   79.44</time>
   <energy>
    <i name="e_fr_energy">    -35.67894735 </i>
    <i name="e_wo_entrp">    -35.67894735 </i>
    <i name="e_0_energy">    -35.67894735 </i>
   </energy>
  </scstep>
  <scstep>
   <time name="dav">   27.10   27.66</time>
   <time name="total">   80.08   81.01</time>
   <energy>
    <i name="e_fr_energy">    -35.67611146 </i>
    <i name="e_wo_entrp">    -35.67611146 </i>
    <i name="e_0_energy">    -35.67611146 </i>
   </energy>
  </scstep>
  <scstep>
   <time name="dav">   25.30   25.36</time>
   <time name="total">   78.20   79.22</time>
   <energy>
    <i name="e_fr_energy">    -35.67850614 </i>
    <i name="e_wo_entrp">    -35.67850614 </i>
    <i name="e_0_energy">    -35.67850614 </i>
   </energy>
  </scstep>
  <scstep>
   <time name="dav">   25.20   25.43</time>
   <time name="total">   78.22   78.76</time>
   <energy>
    <i name="e_fr_energy">    -35.68117301 </i>
    <i name="e_wo_entrp">    -35.68117301 </i>
    <i name="e_0_energy">    -35.68117301 </i>
   </energy>
  </scstep>
  <scstep>
   <time name="dav">   24.20   24.33</time>
   <time name="total">   77.35   77.61</time>
   <energy>
    <i name="e_fr_energy">    -35.68150901 </i>
    <i name="e_wo_entrp">    -35.68150901 </i>
    <i name="e_0_energy">    -35.68150901 </i>
   </energy>
  </scstep>
  <scstep>
   <time name="dav">   25.28   25.41</time>
   <time name="total">   78.45   78.86</time>
   <energy>
    <i name="e_fr_energy">    -35.68376034 </i>
    <i name="e_wo_entrp">    -35.68376034 </i>
    <i name="e_0_energy">    -35.68376034 </i>
   </energy>
  </scstep>
  <scstep>
   <time name="dav">   26.80   26.92</time>
   <time name="total">   79.86   80.23</time>
   <energy>
    <i name="e_fr_energy">    -35.68499453 </i>
    <i name="e_wo_entrp">    -35.68499453 </i>
    <i name="e_0_energy">    -35.68499453 </i>
   </energy>
  </scstep>
  <scstep>
   <time name="dav">   25.52   25.64</time>
   <time name="total">   78.49   78.94</time>
   <energy>
    <i name="e_fr_energy">    -35.68768367 </i>
    <i name="e_wo_entrp">    -35.68768367 </i>
    <i name="e_0_energy">    -35.68768367 </i>
   </energy>
  </scstep>
  <scstep>
   <time name="dav">   23.98   24.15</time>
   <time name="total">   76.94   77.52</time>
   <energy>
    <i name="e_fr_energy">    -35.68990468 </i>
    <i name="e_wo_entrp">    -35.68990468 </i>
    <i name="e_0_energy">    -35.68990468 </i>
   </energy>
  </scstep>
  <scstep>
   <time name="dav">   22.01   22.13</time>
   <time name="total">   75.28   75.67</time>
   <energy>
    <i name="e_fr_energy">    -35.69137754 </i>
    <i name="e_wo_entrp">    -35.69137754 </i>
    <i name="e_0_energy">    -35.69137754 </i>
   </energy>
  </scstep>
  <scstep>
   <time name="dav">   21.51   21.54</time>
   <time name="total">   74.60   74.84</time>
   <energy>
    <i name="e_fr_energy">    -35.69227729 </i>
    <i name="e_wo_entrp">    -35.69227729 </i>
    <i name="e_0_energy">    -35.69227729 </i>
   </energy>
  </scstep>
  <scstep>
   <time name="dav">   26.38   26.48</time>
   <time name="total">   79.66   79.83</time>
   <energy>
    <i name="e_fr_energy">    -63.66411026 </i>
    <i name="e_wo_entrp">    -63.66411026 </i>
    <i name="e_0_energy">    -63.66411026 </i>
   </energy>
  </scstep>
  <scstep>
   <time name="dav">   22.65   22.79</time>
   <time name="total">   75.76   76.03</time>
   <energy>
    <i name="e_fr_energy">    -35.38098839 </i>
    <i name="e_wo_entrp">    -35.38098839 </i>
    <i name="e_0_energy">    -35.38098839 </i>
   </energy>
  </scstep>
  <scstep>
   <time name="dav">   22.41   22.46</time>
   <time name="total">   75.70   75.79</time>
   <energy>
    <i name="e_fr_energy">    -35.67455616 </i>
    <i name="e_wo_entrp">    -35.67455616 </i>
    <i name="e_0_energy">    -35.67455616 </i>
   </energy>
  </scstep>
  <scstep>
   <time name="dav">   22.41   22.49</time>
   <time name="total">   75.60   76.04</time>
   <energy>
    <i name="e_fr_energy">    -35.72144782 </i>
    <i name="e_wo_entrp">    -35.72144782 </i>
    <i name="e_0_energy">    -35.72144782 </i>
   </energy>
  </scstep>
  <scstep>
   <time name="dav">   24.92   25.15</time>
   <time name="total">   78.13   78.61</time>
   <energy>
    <i name="e_fr_energy">    -35.72978273 </i>
    <i name="e_wo_entrp">    -35.72978273 </i>
    <i name="e_0_energy">    -35.72978273 </i>
   </energy>
  </scstep>
  <scstep>
   <time name="dav">   24.97   25.13</time>
   <time name="total">   77.95   78.43</time>
   <energy>
    <i name="e_fr_energy">    -35.73497283 </i>
    <i name="e_wo_entrp">    -35.73497283 </i>
    <i name="e_0_energy">    -35.73497283 </i>
   </energy>
  </scstep>
  <scstep>
   <time name="dav">   25.58   25.76</time>
   <time name="total">   78.74   79.25</time>
   <energy>
    <i name="e_fr_energy">    -35.74202751 </i>
    <i name="e_wo_entrp">    -35.74202751 </i>
    <i name="e_0_energy">    -35.74202751 </i>
   </energy>
  </scstep>
  <scstep>
   <time name="dav">   27.00   27.14</time>
   <time name="total">   80.18   80.56</time>
   <energy>
    <i name="e_fr_energy">    -46.19012232 </i>
    <i name="e_wo_entrp">    -46.19012232 </i>
    <i name="e_0_energy">    -46.19012232 </i>
   </energy>
  </scstep>
  <scstep>
   <time name="dav">   26.01   26.13</time>
   <time name="total">   79.11   79.37</time>
   <energy>
    <i name="e_fr_energy">    -59.28182096 </i>
    <i name="e_wo_entrp">    -59.28182096 </i>
    <i name="e_0_energy">    -59.28182096 </i>
   </energy>
  </scstep>
  <scstep>
   <time name="dav">   23.77   24.05</time>
   <time name="total">   76.83   77.34</time>
   <energy>
    <i name="e_fr_energy">    -36.01980697 </i>
    <i name="e_wo_entrp">    -36.01980697 </i>
    <i name="e_0_energy">    -36.01980697 </i>
   </energy>
  </scstep>
  <scstep>
   <time name="dav">   26.01   26.15</time>
   <time name="total">   78.83   79.51</time>
   <energy>
    <i name="e_fr_energy">   -237.15800599 </i>
    <i name="e_wo_entrp">   -237.15800599 </i>
    <i name="e_0_energy">   -237.15800599 </i>
   </energy>
  </scstep>
  <scstep>
   <time name="dav">   23.00   23.15</time>
   <time name="total">   76.40   76.85</time>
   <energy>
    <i name="e_fr_energy">    -34.94489596 </i>
    <i name="e_wo_entrp">    -34.94489596 </i>
    <i name="e_0_energy">    -34.94489596 </i>
   </energy>
  </scstep>
  <scstep>
   <time name="dav">   25.69   25.78</time>
   <time name="total">   78.79   79.10</time>
   <energy>
    <i name="e_fr_energy">    -41.52139309 </i>
    <i name="e_wo_entrp">    -41.52139309 </i>
    <i name="e_0_energy">    -41.52139309 </i>
   </energy>
  </scstep>
  <scstep>
   <time name="dav">   22.11   22.17</time>
   <time name="total">   75.28   75.60</time>
   <energy>
    <i name="e_fr_energy">    -35.59706722 </i>
    <i name="e_wo_entrp">    -35.59706722 </i>
    <i name="e_0_energy">    -35.59706722 </i>
   </energy>
  </scstep>
  <scstep>
   <time name="dav">   24.31   24.39</time>
   <time name="total">   77.43   77.75</time>
   <energy>
    <i name="e_fr_energy">    -35.72866230 </i>
    <i name="e_wo_entrp">    -35.72866230 </i>
    <i name="e_0_energy">    -35.72866230 </i>
   </energy>
  </scstep>
  <scstep>
   <time name="dav">   23.91   24.13</time>
   <time name="total">   77.31   77.61</time>
   <energy>
    <i name="e_fr_energy">    -35.74675489 </i>
    <i name="e_wo_entrp">    -35.74675489 </i>
    <i name="e_0_energy">    -35.74675489 </i>
   </energy>
  </scstep>
  <scstep>
   <time name="dav">   24.00   24.22</time>
   <time name="total">   77.04   77.61</time>
   <energy>
    <i name="e_fr_energy">    -35.74953558 </i>
    <i name="e_wo_entrp">    -35.74953558 </i>
    <i name="e_0_energy">    -35.74953558 </i>
   </energy>
  </scstep>
  <scstep>
   <time name="dav">   22.13   22.59</time>
   <time name="total">   75.07   76.13</time>
   <energy>
    <i name="e_fr_energy">    -35.74989501 </i>
    <i name="e_wo_entrp">    -35.74989501 </i>
    <i name="e_0_energy">    -35.74989501 </i>
   </energy>
  </scstep>
  <scstep>
   <time name="dav">   21.52   21.75</time>
   <time name="total">   72.28   72.69</time>
   <energy>
    <i name="alphaZ">     25.56480543 </i>
    <i name="ewald">   8338.88239735 </i>
    <i name="hartreedc"> -12015.63970290 </i>
    <i name="XCdc">    119.23689164 </i>
    <i name="pawpsdc">   2371.08731326 </i>
    <i name="pawaedc">  -2455.27708981 </i>
    <i name="eentropy">      0.00000000 </i>
    <i name="bandstr">   -530.56347984 </i>
    <i name="atom">   4110.95894311 </i>
    <i name="e_fr_energy">    -35.74992175 </i>
    <i name="e_wo_entrp">    -35.74992175 </i>
    <i name="e_0_energy">    -35.74992175 </i>
   </energy>
  </scstep>
  <structure>
   <crystal>
    <varray name="basis" >
     <v>       6.90777700      -0.00000000       0.00000000 </v>
     <v>       3.45388800       5.98231000       0.00000000 </v>
     <v>       0.00000000       0.00000000      23.44458800 </v>
    </varray>
    <i name="volume">    968.83501932 </i>
    <varray name="rec_basis" >
     <v>       0.14476437      -0.08357974       0.00000000 </v>
     <v>       0.00000000       0.16715951      -0.00000000 </v>
     <v>      -0.00000000       0.00000000       0.04265377 </v>
    </varray>
   </crystal>
   <varray name="positions" >
    <v>       0.33333300       0.33333300       0.49992500 </v>
    <v>       0.66666700       0.66666700       0.50007500 </v>
    <v>       0.00000000       0.00000000       0.44821600 </v>
    <v>       0.00000000       0.00000000       0.55178400 </v>
    <v>       0.62635700       0.00042000       0.57375200 </v>
    <v>       0.00042000       0.37322400       0.57375200 </v>
    <v>       0.37322400       0.62635700       0.57375200 </v>
    <v>       0.37364300       0.99958000       0.42624800 </v>
    <v>       0.99958000       0.62677600       0.42624800 </v>
    <v>       0.62677600       0.37364300       0.42624800 </v>
   </varray>
  </structure>
  <varray name="forces" >
   <v>       0.00000000      -0.00000000       0.00547828 </v>
   <v>      -0.00000000       0.00000000      -0.01336445 </v>
   <v>       0.00000000       0.00000000      -0.03681285 </v>
   <v>      -0.00000000       0.00000000       0.06490147 </v>
   <v>       1.29658089      -0.00294739      -1.68980557 </v>
   <v>      -0.65084287      -1.12139823      -1.68980557 </v>
   <v>      -0.64573802       1.12434562      -1.68980557 </v>
   <v>      -1.49696795       0.00446940       1.68307142 </v>
   <v>       0.75235448       1.29417749       1.68307142 </v>
   <v>       0.74461347      -1.29864689       1.68307142 </v>
  </varray>
  <varray name="stress" >
   <v>     -51.23923226       0.00000437      -0.00000000 </v>
   <v>       0.00000419     -51.23922600       0.00000000 </v>
   <v>      -0.00000000       0.00000000     -30.23783186 </v>
  </varray>
  <energy>
   <i name="e_fr_energy">    -35.74992175 </i>
   <i name="e_wo_entrp">    -35.74992175 </i>
   <i name="e_0_energy">      0.00000000 </i>
  </energy>
  <time name="totalsc"> 9417.80 9477.06</time>
 </calculation>
 <calculation>
  <scstep>
   <time name="dav">   31.29   31.48</time>
   <time name="total">   85.54   85.94</time>
   <energy>
    <i name="alphaZ">     38.75925177 </i>
    <i name="ewald">  11107.22741688 </i>
    <i name="hartreedc"> -15270.24375084 </i>
    <i name="XCdc">    147.81665089 </i>
    <i name="pawpsdc">   2371.09615262 </i>
    <i name="pawaedc">  -2455.28336502 </i>
    <i name="eentropy">      0.00000000 </i>
    <i name="bandstr">   -235.58844319 </i>
    <i name="atom">   4110.95894311 </i>
    <i name="e_fr_energy">   -185.25714379 </i>
    <i name="e_wo_entrp">   -185.25714379 </i>
    <i name="e_0_energy">   -185.25714379 </i>
   </energy>
  </scstep>
  <scstep>
   <time name="dav">   36.04   36.32</time>
   <time name="total">   90.19   90.66</time>
   <energy>
    <i name="e_fr_energy">   -355.77474050 </i>
    <i name="e_wo_entrp">   -355.77474050 </i>
    <i name="e_0_energy">   -355.77474050 </i>
   </energy>
  </scstep>
  <scstep>
   <time name="dav">   28.18   28.27</time>
   <time name="total">   82.26   82.65</time>
   <energy>
    <i name="e_fr_energy">    -72.71680131 </i>
    <i name="e_wo_entrp">    -72.71680131 </i>
    <i name="e_0_energy">    -72.71680131 </i>
   </energy>
  </scstep>
  <scstep>
   <time name="dav">   32.53   32.64</time>
   <time name="total">   86.64   86.93</time>
   <energy>
    <i name="e_fr_energy">    -62.65084708 </i>
    <i name="e_wo_entrp">    -62.65084708 </i>
    <i name="e_0_energy">    -62.65084708 </i>
   </energy>
  </scstep>
  <scstep>
   <time name="dav">   30.49   30.54</time>
   <time name="total">   84.62   84.83</time>
   <energy>
    <i name="e_fr_energy">    -44.45672138 </i>
    <i name="e_wo_entrp">    -44.45672138 </i>
    <i name="e_0_energy">    -44.45672138 </i>
   </energy>
  </scstep>
  <scstep>
   <time name="dav">   36.01   36.23</time>
   <time name="total">   90.38   90.63</time>
   <energy>
    <i name="e_fr_energy">    -44.87155718 </i>
    <i name="e_wo_entrp">    -44.87155718 </i>
    <i name="e_0_energy">    -44.87155718 </i>
   </energy>
  </scstep>
  <scstep>
   <time name="dav">   33.71   34.04</time>
   <time name="total">   88.02   88.39</time>
   <energy>
    <i name="e_fr_energy">    -44.99692896 </i>
    <i name="e_wo_entrp">    -44.99692896 </i>
    <i name="e_0_energy">    -44.99692896 </i>
   </energy>
  </scstep>
  <scstep>
   <time name="dav">   35.12   35.69</time>
   <time name="total">   89.77   90.57</time>
   <energy>
    <i name="e_fr_energy">    -45.05024117 </i>
    <i name="e_wo_entrp">    -45.05024117 </i>
    <i name="e_0_energy">    -45.05024117 </i>
   </energy>
  </scstep>
  <scstep>
   <time name="dav">   30.73   31.19</time>
   <time name="total">   84.57   85.44</time>
   <energy>
    <i name="e_fr_energy">    -44.61768631 </i>
    <i name="e_wo_entrp">    -44.61768631 </i>
    <i name="e_0_energy">    -44.61768631 </i>
   </energy>
  </scstep>
  <scstep>
   <time name="dav">   34.36   34.86</time>
   <time name="total">   88.26   89.20</time>
   <energy>
    <i name="e_fr_energy">    -44.50209924 </i>
    <i name="e_wo_entrp">    -44.50209924 </i>
    <i name="e_0_energy">    -44.50209924 </i>
   </energy>
  </scstep>
  <scstep>
   <time name="dav">   28.02   28.28</time>
   <time name="total">   81.95   82.55</time>
   <energy>
    <i name="e_fr_energy">    -44.56692796 </i>
    <i name="e_wo_entrp">    -44.56692796 </i>
    <i name="e_0_energy">    -44.56692796 </i>
   </energy>
  </scstep>
  <scstep>
   <time name="dav">   28.18   28.41</time>
   <time name="total">   82.04   82.76</time>
   <energy>
    <i name="e_fr_energy">    -44.54318202 </i>
    <i name="e_wo_entrp">    -44.54318202 </i>
    <i name="e_0_energy">    -44.54318202 </i>
   </energy>
  </scstep>
  <scstep>
   <time name="dav">   30.53   30.84</time>
   <time name="total">   84.36   85.14</time>
   <energy>
    <i name="e_fr_energy">    -44.57295618 </i>
    <i name="e_wo_entrp">    -44.57295618 </i>
    <i name="e_0_energy">    -44.57295618 </i>
   </energy>
  </scstep>
  <scstep>
   <time name="dav">   30.84   31.14</time>
   <time name="total">   85.12   85.65</time>
   <energy>
    <i name="e_fr_energy">    -44.57411022 </i>
    <i name="e_wo_entrp">    -44.57411022 </i>
    <i name="e_0_energy">    -44.57411022 </i>
   </energy>
  </scstep>
  <scstep>
   <time name="dav">   30.22   30.53</time>
   <time name="total">   84.25   85.01</time>
   <energy>
    <i name="e_fr_energy">    -44.56037535 </i>
    <i name="e_wo_entrp">    -44.56037535 </i>
    <i name="e_0_energy">    -44.56037535 </i>
   </energy>
  </scstep>
  <scstep>
   <time name="dav">   31.96   32.55</time>
   <time name="total">   85.89   86.98</time>
   <energy>
    <i name="e_fr_energy">    -44.52735607 </i>
    <i name="e_wo_entrp">    -44.52735607 </i>
    <i name="e_0_energy">    -44.52735607 </i>
   </energy>
  </scstep>
  <scstep>
   <time name="dav">   30.86   31.22</time>
   <time name="total">   84.94   85.63</time>
   <energy>
    <i name="e_fr_energy">    -44.51237963 </i>
    <i name="e_wo_entrp">    -44.51237963 </i>
    <i name="e_0_energy">    -44.51237963 </i>
   </energy>
  </scstep>
  <scstep>
   <time name="dav">   28.95   29.00</time>
   <time name="total">   83.33   83.42</time>
   <energy>
    <i name="e_fr_energy">    -44.51454696 </i>
    <i name="e_wo_entrp">    -44.51454696 </i>
    <i name="e_0_energy">    -44.51454696 </i>
   </energy>
  </scstep>
  <scstep>
   <time name="dav">   26.79   26.95</time>
   <time name="total">   81.08   81.42</time>
   <energy>
    <i name="e_fr_energy">    -44.51440303 </i>
    <i name="e_wo_entrp">    -44.51440303 </i>
    <i name="e_0_energy">    -44.51440303 </i>
   </energy>
  </scstep>
  <scstep>
   <time name="dav">   20.05   20.08</time>
   <time name="total">   72.21   72.40</time>
   <energy>
    <i name="alphaZ">     38.75925177 </i>
    <i name="ewald">  11107.22741688 </i>
    <i name="hartreedc"> -14812.60948693 </i>
    <i name="XCdc">    127.78314165 </i>
    <i name="pawpsdc">   2538.71812810 </i>
    <i name="pawaedc">  -2625.91305725 </i>
    <i name="eentropy">      0.00000000 </i>
    <i name="bandstr">   -529.43876618 </i>
    <i name="atom">   4110.95894311 </i>
    <i name="e_fr_energy">    -44.51442886 </i>
    <i name="e_wo_entrp">    -44.51442886 </i>
    <i name="e_0_energy">    -44.51442886 </i>
   </energy>
  </scstep>
  <structure>
   <crystal>
    <varray name="basis" >
     <v>       5.87522636       0.00000009      -0.00000000 </v>
     <v>       2.93761283       5.08809512       0.00000000 </v>
     <v>      -0.00000000       0.00000000      21.37652535 </v>
    </varray>
    <i name="volume">    639.02365582 </i>
    <varray name="rec_basis" >
     <v>       0.17020621      -0.09826859       0.00000000 </v>
     <v>      -0.00000000       0.19653721      -0.00000000 </v>
     <v>       0.00000000      -0.00000000       0.04678029 </v>
    </varray>
   </crystal>
   <varray name="positions" >
    <v>       0.33333300       0.33333300       0.49993627 </v>
    <v>       0.66666700       0.66666700       0.50004750 </v>
    <v>       0.00000000       0.00000000       0.44814025 </v>
    <v>      -0.00000000       0.00000000       0.55191755 </v>
    <v>       0.63542397       0.00039623       0.57027483 </v>
    <v>       0.00039623       0.36418080       0.57027483 </v>
    <v>       0.36418080       0.63542397       0.57027483 </v>
    <v>       0.36317043       0.99961604       0.42971131 </v>
    <v>       0.99961604       0.63721253       0.42971131 </v>
    <v>       0.63721253       0.36317043       0.42971131 </v>
   </varray>
  </structure>
  <varray name="forces" >
   <v>       0.00000000      -0.00000000      -0.06344796 </v>
   <v>       0.00000000      -0.00000000      -0.07991725 </v>
   <v>       0.00000000      -0.00000000      -0.50539163 </v>
   <v>       0.00000000      -0.00000000       0.53012031 </v>
   <v>       0.86033408      -0.07297268      -0.25229658 </v>
   <v>      -0.49336319      -0.70858480      -0.25229658 </v>
   <v>      -0.36697088       0.78155747      -0.25229658 </v>
   <v>      -0.54949233      -0.05595733       0.29184209 </v>
   <v>       0.22628566       0.50385296       0.29184209 </v>
   <v>       0.32320666      -0.44789563       0.29184209 </v>
  </varray>
  <varray name="stress" >
   <v>     -30.63614239      -0.00000149       0.00000000 </v>
   <v>       0.00000481     -30.63613997      -0.00000000 </v>
   <v>       0.00000000      -0.00000000     -20.58158530 </v>
  </varray>
  <energy>
   <i name="e_fr_energy">    -44.51442886 </i>
   <i name="e_wo_entrp">    -44.51442886 </i>
   <i name="e_0_energy">      0.00000000 </i>
  </energy>
  <time name="totalsc"> 1831.51 1842.52</time>
 </calculation>
 <calculation>
  <scstep>
   <time name="dav">   29.96   30.15</time>
   <time name="total">   85.51   85.83</time>
   <energy>
    <i name="alphaZ">     48.95582286 </i>
    <i name="ewald">  13092.82417786 </i>
    <i name="hartreedc"> -17043.85715973 </i>
    <i name="XCdc">    144.08941707 </i>
    <i name="pawpsdc">   2538.10543413 </i>
    <i name="pawaedc">  -2625.36578721 </i>
    <i name="eentropy">      0.00000000 </i>
    <i name="bandstr">   -341.30211839 </i>
    <i name="atom">   4110.95894311 </i>
    <i name="e_fr_energy">    -75.59127031 </i>
    <i name="e_wo_entrp">    -75.59127031 </i>
    <i name="e_0_energy">    -75.59127031 </i>
   </energy>
  </scstep>
  <scstep>
   <time name="dav">   24.59   24.78</time>
   <time name="total">   80.23   80.45</time>
   <energy>
    <i name="e_fr_energy">   -157.28845297 </i>
    <i name="e_wo_entrp">   -157.28845297 </i>
    <i name="e_0_energy">   -157.28845297 </i>
   </energy>
  </scstep>
  <scstep>
   <time name="dav">   29.44   29.58</time>
   <time name="total">   84.75   85.20</time>
   <energy>
    <i name="e_fr_energy">    -53.58711926 </i>
    <i name="e_wo_entrp">    -53.58711926 </i>
    <i name="e_0_energy">    -53.58711926 </i>
   </energy>
  </scstep>
  <scstep>
   <time name="dav">   30.48   30.58</time>
   <time name="total">   86.03   86.25</time>
   <energy>
    <i name="e_fr_energy">    -47.80630228 </i>
    <i name="e_wo_entrp">    -47.80630228 </i>
    <i name="e_0_energy">    -47.80630228 </i>
   </energy>
  </scstep>
  <scstep>
   <time name="dav">   30.92   31.19</time>
   <time name="total">   86.50   86.98</time>
   <energy>
    <i name="e_fr_energy">    -41.56959148 </i>
    <i name="e_wo_entrp">    -41.56959148 </i>
    <i name="e_0_energy">    -41.56959148 </i>
   </energy>
  </scstep>
  <scstep>
   <time name="dav">   36.11   36.48</time>
   <time name="total">   91.44   92.15</time>
   <energy>
    <i name="e_fr_energy">    -41.90959207 </i>
    <i name="e_wo_entrp">    -41.90959207 </i>
    <i name="e_0_energy">    -41.90959207 </i>
   </energy>
  </scstep>
  <scstep>
   <time name="dav">   34.73   35.08</time>
   <time name="total">   89.99   90.85</time>
   <energy>
    <i name="e_fr_energy">    -42.12186857 </i>
    <i name="e_wo_entrp">    -42.12186857 </i>
    <i name="e_0_energy">    -42.12186857 </i>
   </energy>
  </scstep>
  <scstep>
   <time name="dav">   34.27   34.50</time>
   <time name="total">   89.44   90.17</time>
   <energy>
    <i name="e_fr_energy">    -41.35686091 </i>
    <i name="e_wo_entrp">    -41.35686091 </i>
    <i name="e_0_energy">    -41.35686091 </i>
   </energy>
  </scstep>
  <scstep>
   <time name="dav">   35.61   36.30</time>
   <time name="total">   90.90   92.11</time>
   <energy>
    <i name="e_fr_energy">    -41.34531899 </i>
    <i name="e_wo_entrp">    -41.34531899 </i>
    <i name="e_0_energy">    -41.34531899 </i>
   </energy>
  </scstep>
  <scstep>
   <time name="dav">   33.88   34.13</time>
   <time name="total">   89.30   89.87</time>
   <energy>
    <i name="e_fr_energy">    -41.35106419 </i>
    <i name="e_wo_entrp">    -41.35106419 </i>
    <i name="e_0_energy">    -41.35106419 </i>
   </energy>
  </scstep>
  <scstep>
   <time name="dav">   32.38   32.75</time>
   <time name="total">   87.76   88.48</time>
   <energy>
    <i name="e_fr_energy">    -41.35552831 </i>
    <i name="e_wo_entrp">    -41.35552831 </i>
    <i name="e_0_energy">    -41.35552831 </i>
   </energy>
  </scstep>
  <scstep>
   <time name="dav">   33.28   33.40</time>
   <time name="total">   88.94   89.23</time>
   <energy>
    <i name="e_fr_energy">    -41.36094558 </i>
    <i name="e_wo_entrp">    -41.36094558 </i>
    <i name="e_0_energy">    -41.36094558 </i>
   </energy>
  </scstep>
  <scstep>
   <time name="dav">   29.30   29.59</time>
   <time name="total">   85.06   85.52</time>
   <energy>
    <i name="e_fr_energy">    -41.36053514 </i>
    <i name="e_wo_entrp">    -41.36053514 </i>
    <i name="e_0_energy">    -41.36053514 </i>
   </energy>
  </scstep>
  <scstep>
   <time name="dav">   34.88   35.08</time>
   <time name="total">   90.28   90.82</time>
   <energy>
    <i name="e_fr_energy">    -41.36193439 </i>
    <i name="e_wo_entrp">    -41.36193439 </i>
    <i name="e_0_energy">    -41.36193439 </i>
   </energy>
  </scstep>
  <scstep>
   <time name="dav">   27.23   27.53</time>
   <time name="total">   82.74   83.33</time>
   <energy>
    <i name="e_fr_energy">    -41.36249661 </i>
    <i name="e_wo_entrp">    -41.36249661 </i>
    <i name="e_0_energy">    -41.36249661 </i>
   </energy>
  </scstep>
  <scstep>
   <time name="dav">   26.36   26.66</time>
   <time name="total">   81.97   82.61</time>
   <energy>
    <i name="e_fr_energy">    -41.36224090 </i>
    <i name="e_wo_entrp">    -41.36224090 </i>
    <i name="e_0_energy">    -41.36224090 </i>
   </energy>
  </scstep>
  <scstep>
   <time name="dav">   23.49   23.63</time>
   <time name="total">   76.86   77.11</time>
   <energy>
    <i name="alphaZ">     48.95582286 </i>
    <i name="ewald">  13092.82417786 </i>
    <i name="hartreedc"> -16834.07654078 </i>
    <i name="XCdc">    134.90128870 </i>
    <i name="pawpsdc">   2732.67672668 </i>
    <i name="pawaedc">  -2824.48540848 </i>
    <i name="eentropy">      0.00000000 </i>
    <i name="bandstr">   -503.11730709 </i>
    <i name="atom">   4110.95894311 </i>
    <i name="e_fr_energy">    -41.36229714 </i>
    <i name="e_wo_entrp">    -41.36229714 </i>
    <i name="e_0_energy">    -41.36229714 </i>
   </energy>
  </scstep>
  <structure>
   <crystal>
    <varray name="basis" >
     <v>       5.35891965       0.00000013      -0.00000000 </v>
     <v>       2.67945954       4.64096050       0.00000000 </v>
     <v>      -0.00000000       0.00000000      20.34243115 </v>
    </varray>
    <i name="volume">    505.92712609 </i>
    <varray name="rec_basis" >
     <v>       0.18660478      -0.10773631       0.00000000 </v>
     <v>      -0.00000001       0.21547264      -0.00000000 </v>
     <v>       0.00000000      -0.00000000       0.04915833 </v>
    </varray>
   </crystal>
   <varray name="positions" >
    <v>       0.33333300       0.33333300       0.49994245 </v>
    <v>       0.66666700       0.66666700       0.50003242 </v>
    <v>       0.00000000       0.00000000       0.44809871 </v>
    <v>      -0.00000000       0.00000000       0.55199079 </v>
    <v>       0.64075452       0.00038226       0.56836794 </v>
    <v>       0.00038226       0.35886422       0.56836794 </v>
    <v>       0.35886422       0.64075452       0.56836794 </v>
    <v>       0.35701351       0.99963723       0.43161061 </v>
    <v>       0.99963723       0.64334826       0.43161061 </v>
    <v>       0.64334826       0.35701351       0.43161061 </v>
   </varray>
  </structure>
  <varray name="forces" >
   <v>       0.00000000       0.00000000      -0.21285363 </v>
   <v>       0.00000000       0.00000000      -0.18375946 </v>
   <v>       0.00000000       0.00000000      -0.28800524 </v>
   <v>       0.00000000       0.00000000       0.69086058 </v>
   <v>      -1.10341272      -0.01868845       2.23762187 </v>
   <v>       0.53552165       0.96492765       2.23762187 </v>
   <v>       0.56789107      -0.94623919       2.23762187 </v>
   <v>       2.60098979       0.01509828      -2.23970262 </v>
   <v>      -1.28741932      -2.26007231      -2.23970262 </v>
   <v>      -1.31357047       2.24497403      -2.23970262 </v>
  </varray>
  <varray name="stress" >
   <v>     116.59209620      -0.00000246       0.00000000 </v>
   <v>      -0.00000577     116.59209018      -0.00000000 </v>
   <v>       0.00000000      -0.00000000      63.70836785 </v>
  </varray>
  <energy>
   <i name="e_fr_energy">    -41.36229714 </i>
   <i name="e_wo_entrp">    -41.36229714 </i>
   <i name="e_0_energy">      0.00000000 </i>
  </energy>
  <time name="totalsc"> 1608.65 1618.15</time>
 </calculation>
 <calculation>
  <scstep>
   <time name="dav">   27.10   27.38</time>
   <time name="total">   81.74   82.17</time>
   <energy>
    <i name="alphaZ">     40.98445773 </i>
    <i name="ewald">  11545.13656575 </i>
    <i name="hartreedc"> -15112.68605482 </i>
    <i name="XCdc">    122.87257063 </i>
    <i name="pawpsdc">   2733.00775029 </i>
    <i name="pawaedc">  -2824.83101383 </i>
    <i name="eentropy">      0.00000000 </i>
    <i name="bandstr">   -675.89995284 </i>
    <i name="atom">   4110.95894311 </i>
    <i name="e_fr_energy">    -60.45673397 </i>
    <i name="e_wo_entrp">    -60.45673397 </i>
    <i name="e_0_energy">    -60.45673397 </i>
   </energy>
  </scstep>
  <scstep>
   <time name="dav">   27.85   27.94</time>
   <time name="total">   82.28   82.60</time>
   <energy>
    <i name="e_fr_energy">    -81.50660222 </i>
    <i name="e_wo_entrp">    -81.50660222 </i>
    <i name="e_0_energy">    -81.50660222 </i>
   </energy>
  </scstep>
  <scstep>
   <time name="dav">   27.64   27.85</time>
   <time name="total">   82.06   82.48</time>
   <energy>
    <i name="e_fr_energy">    -52.10049141 </i>
    <i name="e_wo_entrp">    -52.10049141 </i>
    <i name="e_0_energy">    -52.10049141 </i>
   </energy>
  </scstep>
  <scstep>
   <time name="dav">   28.46   28.54</time>
   <time name="total">   82.95   83.26</time>
   <energy>
    <i name="e_fr_energy">    -46.55977547 </i>
    <i name="e_wo_entrp">    -46.55977547 </i>
    <i name="e_0_energy">    -46.55977547 </i>
   </energy>
  </scstep>
  <scstep>
   <time name="dav">   35.83   35.98</time>
   <time name="total">   90.38   90.82</time>
   <energy>
    <i name="e_fr_energy">    -45.48533247 </i>
    <i name="e_wo_entrp">    -45.48533247 </i>
    <i name="e_0_energy">    -45.48533247 </i>
   </energy>
  </scstep>
  <scstep>
   <time name="dav">   31.36   31.57</time>
   <time name="total">   85.88   86.38</time>
   <energy>
    <i name="e_fr_energy">    -45.16674082 </i>
    <i name="e_wo_entrp">    -45.16674082 </i>
    <i name="e_0_energy">    -45.16674082 </i>
   </energy>
  </scstep>
  <scstep>
   <time name="dav">   30.42   30.52</time>
   <time name="total">   85.19   85.37</time>
   <energy>
    <i name="e_fr_energy">    -44.99715079 </i>
    <i name="e_wo_entrp">    -44.99715079 </i>
    <i name="e_0_energy">    -44.99715079 </i>
   </energy>
  </scstep>
  <scstep>
   <time name="dav">   31.85   32.02</time>
   <time name="total">   86.38   86.63</time>
   <energy>
    <i name="e_fr_energy">    -44.67800892 </i>
    <i name="e_wo_entrp">    -44.67800892 </i>
    <i name="e_0_energy">    -44.67800892 </i>
   </energy>
  </scstep>
  <scstep>
   <time name="dav">   32.40   32.58</time>
   <time name="total">   86.78   87.37</time>
   <energy>
    <i name="e_fr_energy">    -44.57878289 </i>
    <i name="e_wo_entrp">    -44.57878289 </i>
    <i name="e_0_energy">    -44.57878289 </i>
   </energy>
  </scstep>
  <scstep>
   <time name="dav">   29.60   29.88</time>
   <time name="total">   84.15   84.61</time>
   <energy>
    <i name="e_fr_energy">    -44.57505528 </i>
    <i name="e_wo_entrp">    -44.57505528 </i>
    <i name="e_0_energy">    -44.57505528 </i>
   </energy>
  </scstep>
  <scstep>
   <time name="dav">   28.99   29.10</time>
   <time name="total">   83.42   83.76</time>
   <energy>
    <i name="e_fr_energy">    -44.56913660 </i>
    <i name="e_wo_entrp">    -44.56913660 </i>
    <i name="e_0_energy">    -44.56913660 </i>
   </energy>
  </scstep>
  <scstep>
   <time name="dav">   34.25   34.64</time>
   <time name="total">   88.59   89.23</time>
   <energy>
    <i name="e_fr_energy">    -44.56798858 </i>
    <i name="e_wo_entrp">    -44.56798858 </i>
    <i name="e_0_energy">    -44.56798858 </i>
   </energy>
  </scstep>
  <scstep>
   <time name="dav">   26.47   26.51</time>
   <time name="total">   80.87   81.22</time>
   <energy>
    <i name="e_fr_energy">    -44.56669649 </i>
    <i name="e_wo_entrp">    -44.56669649 </i>
    <i name="e_0_energy">    -44.56669649 </i>
   </energy>
  </scstep>
  <scstep>
   <time name="dav">   23.41   23.51</time>
   <time name="total">   77.92   78.33</time>
   <energy>
    <i name="e_fr_energy">    -44.56601712 </i>
    <i name="e_wo_entrp">    -44.56601712 </i>
    <i name="e_0_energy">    -44.56601712 </i>
   </energy>
  </scstep>
  <scstep>
   <time name="dav">   25.09   25.31</time>
   <time name="total">   79.69   80.07</time>
   <energy>
    <i name="e_fr_energy">    -44.56405513 </i>
    <i name="e_wo_entrp">    -44.56405513 </i>
    <i name="e_0_energy">    -44.56405513 </i>
   </energy>
  </scstep>
  <scstep>
   <time name="dav">   25.18   25.35</time>
   <time name="total">   79.78   80.16</time>
   <energy>
    <i name="e_fr_energy">    -44.56223260 </i>
    <i name="e_wo_entrp">    -44.56223260 </i>
    <i name="e_0_energy">    -44.56223260 </i>
   </energy>
  </scstep>
  <scstep>
   <time name="dav">   24.15   24.22</time>
   <time name="total">   78.50   78.85</time>
   <energy>
    <i name="e_fr_energy">    -44.56201845 </i>
    <i name="e_wo_entrp">    -44.56201845 </i>
    <i name="e_0_energy">    -44.56201845 </i>
   </energy>
  </scstep>
  <scstep>
   <time name="dav">   21.19   21.39</time>
   <time name="total">   75.61   76.04</time>
   <energy>
    <i name="e_fr_energy">    -44.56263216 </i>
[...]
        <r>  0.0001  0.0003  0.0064  0.0018  0.0000  0.0000  0.0000  0.0000  0.0000 </r>
        <r>  0.0002  0.0035  0.0008  0.0017  0.0000  0.0000  0.0000  0.0000  0.0000 </r>
        <r>  0.0008  0.0113  0.0190  0.0041  0.0000  0.0000  0.0000  0.0000  0.0000 </r>
       </set>
       <set comment="band 30">
        <r>  0.0007  0.0052  0.0002  0.0074  0.0340  0.0569  0.1945  0.0500  0.0803 </r>
        <r>  0.0001  0.0005  0.0001  0.0010  0.0253  0.0144  0.0613  0.0051  0.0605 </r>
        <r>  0.0003  0.0013  0.0089  0.0004  0.0000  0.0000  0.0000  0.0000  0.0000 </r>
        <r>  0.0009  0.0004  0.0243  0.0004  0.0000  0.0000  0.0000  0.0000  0.0000 </r>
        <r>  0.0007  0.0246  0.0029  0.0031  0.0000  0.0000  0.0000  0.0000  0.0000 </r>
        <r>  0.0019  0.0051  0.0221  0.0035  0.0000  0.0000  0.0000  0.0000  0.0000 </r>
        <r>  0.0008  0.0012  0.0175  0.0055  0.0000  0.0000  0.0000  0.0000  0.0000 </r>
        <r>  0.0007  0.0020  0.0163  0.0024  0.0000  0.0000  0.0000  0.0000  0.0000 </r>
        <r>  0.0021  0.0005  0.0292  0.0130  0.0000  0.0000  0.0000  0.0000  0.0000 </r>
        <r>  0.0003  0.0077  0.0075  0.0061  0.0000  0.0000  0.0000  0.0000  0.0000 </r>
       </set>
       <set comment="band 31">
        <r>  0.0003  0.0027  0.0001  0.0028  0.0388  0.0044  0.2708  0.0105  0.1154 </r>
        <r>  0.0002  0.0062  0.0003  0.0099  0.0713  0.0090  0.0054  0.0026  0.0306 </r>
        <r>  0.0002  0.0007  0.0011  0.0006  0.0000  0.0000  0.0000  0.0000  0.0000 </r>
        <r>  0.0008  0.0003  0.0029  0.0003  0.0000  0.0000  0.0000  0.0000  0.0000 </r>
        <r>  0.0000  0.0301  0.0027  0.0009  0.0000  0.0000  0.0000  0.0000  0.0000 </r>
        <r>  0.0002  0.0063  0.0033  0.0360  0.0000  0.0000  0.0000  0.0000  0.0000 </r>
        <r>  0.0000  0.0137  0.0082  0.0235  0.0000  0.0000  0.0000  0.0000  0.0000 </r>
        <r>  0.0000  0.0279  0.0156  0.0017  0.0000  0.0000  0.0000  0.0000  0.0000 </r>
        <r>  0.0002  0.0131  0.0044  0.0159  0.0000  0.0000  0.0000  0.0000  0.0000 </r>
        <r>  0.0000  0.0059  0.0022  0.0195  0.0000  0.0000  0.0000  0.0000  0.0000 </r>
       </set>
       <set comment="band 32">
        <r>  0.0002  0.0007  0.0004  0.0006  0.0266  0.0162  0.0244  0.0182  0.0279 </r>
        <r>  0.0001  0.0003  0.0000  0.0001  0.0154  0.0947  0.0000  0.1857  0.0492 </r>
        <r>  0.0008  0.0019  0.0105  0.0008  0.0000  0.0000  0.0000  0.0000  0.0000 </r>
        <r>  0.0013  0.0001  0.0039  0.0016  0.0000  0.0000  0.0000  0.0000  0.0000 </r>
        <r>  0.0005  0.0068  0.0004  0.0096  0.0000  0.0000  0.0000  0.0000  0.0000 </r>
        <r>  0.0045  0.0077  0.0309  0.0016  0.0000  0.0000  0.0000  0.0000  0.0000 </r>
        <r>  0.0046  0.0060  0.0280  0.0267  0.0000  0.0000  0.0000  0.0000  0.0000 </r>
        <r>  0.0056  0.0327  0.0270  0.0049  0.0000  0.0000  0.0000  0.0000  0.0000 </r>
        <r>  0.0055  0.0012  0.0245  0.0169  0.0000  0.0000  0.0000  0.0000  0.0000 </r>
        <r>  0.0006  0.0107  0.0011  0.0059  0.0000  0.0000  0.0000  0.0000  0.0000 </r>
       </set>
       <set comment="band 33">
        <r>  0.0003  0.0003  0.0011  0.0001  0.0203  0.0210  0.0107  0.0485  0.0385 </r>
        <r>  0.0003  0.0010  0.0003  0.0002  0.0707  0.1273  0.0008  0.0502  0.0262 </r>
        <r>  0.0011  0.0004  0.0095  0.0031  0.0000  0.0000  0.0000  0.0000  0.0000 </r>
        <r>  0.0032  0.0012  0.0054  0.0010  0.0000  0.0000  0.0000  0.0000  0.0000 </r>
        <r>  0.0059  0.0244  0.0515  0.0039  0.0000  0.0000  0.0000  0.0000  0.0000 </r>
        <r>  0.0020  0.0106  0.0106  0.0023  0.0000  0.0000  0.0000  0.0000  0.0000 </r>
        <r>  0.0000  0.0047  0.0128  0.0055  0.0000  0.0000  0.0000  0.0000  0.0000 </r>
        <r>  0.0000  0.0139  0.0110  0.0029  0.0000  0.0000  0.0000  0.0000  0.0000 </r>
        <r>  0.0020  0.0004  0.0067  0.0158  0.0000  0.0000  0.0000  0.0000  0.0000 </r>
        <r>  0.0069  0.0095  0.0477  0.0276  0.0000  0.0000  0.0000  0.0000  0.0000 </r>
       </set>
       <set comment="band 34">
        <r>  0.0001  0.0002  0.0000  0.0003  0.0998  0.2048  0.0018  0.1356  0.0457 </r>
        <r>  0.0004  0.0000  0.0011  0.0002  0.0125  0.0102  0.0077  0.0040  0.0030 </r>
        <r>  0.0012  0.0008  0.0004  0.0020  0.0000  0.0000  0.0000  0.0000  0.0000 </r>
        <r>  0.0028  0.0009  0.0010  0.0012  0.0000  0.0000  0.0000  0.0000  0.0000 </r>
        <r>  0.0018  0.0109  0.0200  0.0023  0.0000  0.0000  0.0000  0.0000  0.0000 </r>
        <r>  0.0011  0.0079  0.0101  0.0101  0.0000  0.0000  0.0000  0.0000  0.0000 </r>
        <r>  0.0048  0.0117  0.0312  0.0100  0.0000  0.0000  0.0000  0.0000  0.0000 </r>
        <r>  0.0048  0.0180  0.0297  0.0058  0.0000  0.0000  0.0000  0.0000  0.0000 </r>
        <r>  0.0021  0.0195  0.0129  0.0001  0.0000  0.0000  0.0000  0.0000  0.0000 </r>
        <r>  0.0018  0.0029  0.0195  0.0119  0.0000  0.0000  0.0000  0.0000  0.0000 </r>
       </set>
       <set comment="band 35">
        <r>  0.0003  0.0000  0.0002  0.0006  0.0259  0.1001  0.0004  0.1854  0.0382 </r>
        <r>  0.0005  0.0006  0.0002  0.0001  0.0009  0.0249  0.0001  0.0423  0.0023 </r>
        <r>  0.0003  0.0003  0.0020  0.0004  0.0000  0.0000  0.0000  0.0000  0.0000 </r>
        <r>  0.0008  0.0002  0.0011  0.0006  0.0000  0.0000  0.0000  0.0000  0.0000 </r>
        <r>  0.0020  0.0475  0.0047  0.0002  0.0000  0.0000  0.0000  0.0000  0.0000 </r>
        <r>  0.0008  0.0122  0.0016  0.0344  0.0000  0.0000  0.0000  0.0000  0.0000 </r>
        <r>  0.0009  0.0049  0.0021  0.0421  0.0000  0.0000  0.0000  0.0000  0.0000 </r>
        <r>  0.0008  0.0565  0.0013  0.0011  0.0000  0.0000  0.0000  0.0000  0.0000 </r>
        <r>  0.0006  0.0166  0.0008  0.0424  0.0000  0.0000  0.0000  0.0000  0.0000 </r>
        <r>  0.0020  0.0112  0.0048  0.0510  0.0000  0.0000  0.0000  0.0000  0.0000 </r>
       </set>
       <set comment="band 36">
        <r>  0.0001  0.0026  0.0001  0.0012  0.0012  0.0167  0.0001  0.0021  0.0111 </r>
        <r>  0.0001  0.0018  0.0001  0.0021  0.0069  0.0034  0.0001  0.0070  0.0025 </r>
        <r>  0.0112  0.0001  0.0004  0.0000  0.0000  0.0000  0.0000  0.0000  0.0000 </r>
        <r>  0.1008  0.0025  0.0610  0.0008  0.0000  0.0000  0.0000  0.0000  0.0000 </r>
        <r>  0.0084  0.0056  0.0013  0.0758  0.0000  0.0000  0.0000  0.0000  0.0000 </r>
        <r>  0.0079  0.0654  0.0045  0.0229  0.0000  0.0000  0.0000  0.0000  0.0000 </r>
        <r>  0.0085  0.0407  0.0011  0.0372  0.0000  0.0000  0.0000  0.0000  0.0000 </r>
        <r>  0.0030  0.0014  0.0055  0.0038  0.0000  0.0000  0.0000  0.0000  0.0000 </r>
        <r>  0.0018  0.0068  0.0023  0.0017  0.0000  0.0000  0.0000  0.0000  0.0000 </r>
        <r>  0.0026  0.0014  0.0049  0.0039  0.0000  0.0000  0.0000  0.0000  0.0000 </r>
       </set>
       <set comment="band 37">
        <r>  0.0027  0.0019  0.0003  0.0020  0.0115  0.0069  0.0005  0.0100  0.0061 </r>
        <r>  0.0027  0.0025  0.0003  0.0015  0.0073  0.0102  0.0004  0.0021  0.0075 </r>
        <r>  0.0926  0.0021  0.0585  0.0007  0.0000  0.0000  0.0000  0.0000  0.0000 </r>
        <r>  0.0021  0.0105  0.0051  0.0036  0.0000  0.0000  0.0000  0.0000  0.0000 </r>
        <r>  0.0011  0.0005  0.0042  0.0052  0.0000  0.0000  0.0000  0.0000  0.0000 </r>
        <r>  0.0017  0.0066  0.0001  0.0025  0.0000  0.0000  0.0000  0.0000  0.0000 </r>
        <r>  0.0012  0.0032  0.0046  0.0024  0.0000  0.0000  0.0000  0.0000  0.0000 </r>
        <r>  0.0078  0.0034  0.0062  0.0470  0.0000  0.0000  0.0000  0.0000  0.0000 </r>
        <r>  0.0081  0.0425  0.0098  0.0137  0.0000  0.0000  0.0000  0.0000  0.0000 </r>
        <r>  0.0079  0.0253  0.0062  0.0268  0.0000  0.0000  0.0000  0.0000  0.0000 </r>
       </set>
       <set comment="band 38">
        <r>  0.0294  0.0001  0.0026  0.0028  0.0060  0.0016  0.0031  0.0006  0.0000 </r>
        <r>  0.0332  0.0016  0.0027  0.0011  0.0014  0.0004  0.0028  0.0014  0.0032 </r>
        <r>  0.0087  0.0086  0.0086  0.0030  0.0000  0.0000  0.0000  0.0000  0.0000 </r>
        <r>  0.0017  0.0700  0.0030  0.0229  0.0000  0.0000  0.0000  0.0000  0.0000 </r>
        <r>  0.0029  0.0031  0.0028  0.0080  0.0000  0.0000  0.0000  0.0000  0.0000 </r>
        <r>  0.0246  0.0462  0.0079  0.0156  0.0000  0.0000  0.0000  0.0000  0.0000 </r>
        <r>  0.0030  0.0020  0.0030  0.0084  0.0000  0.0000  0.0000  0.0000  0.0000 </r>
        <r>  0.0035  0.0007  0.0025  0.0105  0.0000  0.0000  0.0000  0.0000  0.0000 </r>
        <r>  0.0020  0.0068  0.0030  0.0023  0.0000  0.0000  0.0000  0.0000  0.0000 </r>
        <r>  0.0032  0.0073  0.0025  0.0046  0.0000  0.0000  0.0000  0.0000  0.0000 </r>
       </set>
       <set comment="band 39">
        <r>  0.0275  0.0022  0.0021  0.0017  0.0029  0.0019  0.0021  0.0026  0.0006 </r>
        <r>  0.0284  0.0024  0.0017  0.0015  0.0013  0.0028  0.0017  0.0001  0.0014 </r>
        <r>  0.0000  0.0041  0.0000  0.0110  0.0000  0.0000  0.0000  0.0000  0.0000 </r>
        <r>  0.0000  0.0234  0.0000  0.0715  0.0000  0.0000  0.0000  0.0000  0.0000 </r>
        <r>  0.0107  0.0175  0.0028  0.0512  0.0000  0.0000  0.0000  0.0000  0.0000 </r>
        <r>  0.0000  0.0051  0.0000  0.0135  0.0000  0.0000  0.0000  0.0000  0.0000 </r>
        <r>  0.0105  0.0700  0.0025  0.0000  0.0000  0.0000  0.0000  0.0000  0.0000 </r>
        <r>  0.0029  0.0059  0.0007  0.0140  0.0000  0.0000  0.0000  0.0000  0.0000 </r>
        <r>  0.0000  0.0002  0.0000  0.0009  0.0000  0.0000  0.0000  0.0000  0.0000 </r>
        <r>  0.0032  0.0189  0.0009  0.0003  0.0000  0.0000  0.0000  0.0000  0.0000 </r>
       </set>
       <set comment="band 40">
        <r>  0.0389  0.0018  0.0037  0.0003  0.0009  0.0019  0.0039  0.0007  0.0070 </r>
        <r>  0.0383  0.0004  0.0040  0.0018  0.0034  0.0008  0.0031  0.0012  0.0035 </r>
        <r>  0.0060  0.0385  0.0093  0.0137  0.0000  0.0000  0.0000  0.0000  0.0000 </r>
        <r>  0.0053  0.0136  0.0074  0.0037  0.0000  0.0000  0.0000  0.0000  0.0000 </r>
        <r>  0.0003  0.0044  0.0058  0.0017  0.0000  0.0000  0.0000  0.0000  0.0000 </r>
        <r>  0.0088  0.0030  0.0050  0.0013  0.0000  0.0000  0.0000  0.0000  0.0000 </r>
        <r>  0.0004  0.0000  0.0055  0.0059  0.0000  0.0000  0.0000  0.0000  0.0000 </r>
        <r>  0.0032  0.0011  0.0067  0.0040  0.0000  0.0000  0.0000  0.0000  0.0000 </r>
        <r>  0.0223  0.0113  0.0013  0.0035  0.0000  0.0000  0.0000  0.0000  0.0000 </r>
        <r>  0.0027  0.0012  0.0066  0.0035  0.0000  0.0000  0.0000  0.0000  0.0000 </r>
       </set>
       <set comment="band 41">
        <r>  0.0053  0.0032  0.0004  0.0019  0.0054  0.0042  0.0007  0.0061  0.0037 </r>
        <r>  0.0058  0.0043  0.0004  0.0011  0.0036  0.0027  0.0006  0.0045  0.0034 </r>
        <r>  0.0640  0.0066  0.0411  0.0027  0.0000  0.0000  0.0000  0.0000  0.0000 </r>
        <r>  0.0273  0.0021  0.0373  0.0008  0.0000  0.0000  0.0000  0.0000  0.0000 </r>
        <r>  0.0004  0.0008  0.0094  0.0016  0.0000  0.0000  0.0000  0.0000  0.0000 </r>
        <r>  0.0009  0.0026  0.0246  0.0007  0.0000  0.0000  0.0000  0.0000  0.0000 </r>
        <r>  0.0003  0.0026  0.0096  0.0000  0.0000  0.0000  0.0000  0.0000  0.0000 </r>
        <r>  0.0002  0.0000  0.0074  0.0084  0.0000  0.0000  0.0000  0.0000  0.0000 </r>
        <r>  0.0059  0.0157  0.0335  0.0050  0.0000  0.0000  0.0000  0.0000  0.0000 </r>
        <r>  0.0002  0.0068  0.0078  0.0020  0.0000  0.0000  0.0000  0.0000  0.0000 </r>
       </set>
       <set comment="band 42">
        <r>  0.0227  0.0016  0.0018  0.0001  0.0019  0.0045  0.0029  0.0031  0.0046 </r>
        <r>  0.0236  0.0006  0.0020  0.0011  0.0032  0.0023  0.0023  0.0039  0.0033 </r>
        <r>  0.0000  0.0172  0.0000  0.0481  0.0000  0.0000  0.0000  0.0000  0.0000 </r>
        <r>  0.0000  0.0058  0.0000  0.0197  0.0000  0.0000  0.0000  0.0000  0.0000 </r>
        <r>  0.0041  0.0036  0.0034  0.0056  0.0000  0.0000  0.0000  0.0000  0.0000 </r>
        <r>  0.0000  0.0041  0.0000  0.0123  0.0000  0.0000  0.0000  0.0000  0.0000 </r>
        <r>  0.0041  0.0083  0.0032  0.0010  0.0000  0.0000  0.0000  0.0000  0.0000 </r>
        <r>  0.0122  0.0123  0.0030  0.0180  0.0000  0.0000  0.0000  0.0000  0.0000 </r>
        <r>  0.0000  0.0040  0.0000  0.0135  0.0000  0.0000  0.0000  0.0000  0.0000 </r>
        <r>  0.0125  0.0288  0.0029  0.0009  0.0000  0.0000  0.0000  0.0000  0.0000 </r>
       </set>
       <set comment="band 43">
        <r>  0.0263  0.0000  0.0052  0.0030  0.0032  0.0007  0.0077  0.0009  0.0035 </r>
        <r>  0.0300  0.0026  0.0054  0.0005  0.0011  0.0011  0.0080  0.0001  0.0043 </r>
        <r>  0.0041  0.0148  0.0015  0.0054  0.0000  0.0000  0.0000  0.0000  0.0000 </r>
        <r>  0.0007  0.0103  0.0035  0.0031  0.0000  0.0000  0.0000  0.0000  0.0000 </r>
        <r>  0.0005  0.0070  0.0001  0.0022  0.0000  0.0000  0.0000  0.0000  0.0000 </r>
        <r>  0.0035  0.0035  0.0131  0.0012  0.0000  0.0000  0.0000  0.0000  0.0000 </r>
        <r>  0.0005  0.0005  0.0001  0.0090  0.0000  0.0000  0.0000  0.0000  0.0000 </r>
        <r>  0.0000  0.0081  0.0008  0.0007  0.0000  0.0000  0.0000  0.0000  0.0000 </r>
        <r>  0.0068  0.0028  0.0076  0.0010  0.0000  0.0000  0.0000  0.0000  0.0000 </r>
        <r>  0.0000  0.0006  0.0006  0.0083  0.0000  0.0000  0.0000  0.0000  0.0000 </r>
       </set>
       <set comment="band 44">
        <r>  0.0073  0.0041  0.0045  0.0032  0.0005  0.0004  0.0004  0.0000  0.0019 </r>
        <r>  0.0083  0.0004  0.0048  0.0072  0.0019  0.0000  0.0004  0.0003  0.0000 </r>
        <r>  0.0069  0.0050  0.0032  0.0019  0.0000  0.0000  0.0000  0.0000  0.0000 </r>
        <r>  0.0012  0.0020  0.0012  0.0006  0.0000  0.0000  0.0000  0.0000  0.0000 </r>
        <r>  0.0013  0.0014  0.0022  0.0017  0.0000  0.0000  0.0000  0.0000  0.0000 </r>
        <r>  0.0027  0.0043  0.0053  0.0017  0.0000  0.0000  0.0000  0.0000  0.0000 </r>
        <r>  0.0016  0.0017  0.0021  0.0013  0.0000  0.0000  0.0000  0.0000  0.0000 </r>
        <r>  0.0007  0.0020  0.0024  0.0009  0.0000  0.0000  0.0000  0.0000  0.0000 </r>
        <r>  0.0006  0.0088  0.0070  0.0026  0.0000  0.0000  0.0000  0.0000  0.0000 </r>
        <r>  0.0006  0.0022  0.0026  0.0005  0.0000  0.0000  0.0000  0.0000  0.0000 </r>
       </set>
       <set comment="band 45">
        <r>  0.0118  0.0028  0.0093  0.0012  0.0020  0.0005  0.0020  0.0001  0.0022 </r>
        <r>  0.0156  0.0026  0.0043  0.0013  0.0024  0.0002  0.0020  0.0002  0.0033 </r>
        <r>  0.0000  0.0022  0.0000  0.0037  0.0000  0.0000  0.0000  0.0000  0.0000 </r>
        <r>  0.0000  0.0002  0.0000  0.0025  0.0000  0.0000  0.0000  0.0000  0.0000 </r>
        <r>  0.0031  0.0013  0.0075  0.0003  0.0000  0.0000  0.0000  0.0000  0.0000 </r>
        <r>  0.0000  0.0024  0.0000  0.0054  0.0000  0.0000  0.0000  0.0000  0.0000 </r>
        <r>  0.0034  0.0008  0.0097  0.0015  0.0000  0.0000  0.0000  0.0000  0.0000 </r>
        <r>  0.0037  0.0029  0.0082  0.0009  0.0000  0.0000  0.0000  0.0000  0.0000 </r>
        <r>  0.0000  0.0021  0.0001  0.0073  0.0000  0.0000  0.0000  0.0000  0.0000 </r>
        <r>  0.0036  0.0023  0.0057  0.0010  0.0000  0.0000  0.0000  0.0000  0.0000 </r>
       </set>
       <set comment="band 46">
        <r>  0.0180  0.0019  0.0158  0.0010  0.0011  0.0004  0.0002  0.0002  0.0035 </r>
        <r>  0.0159  0.0012  0.0214  0.0023  0.0009  0.0001  0.0001  0.0003  0.0016 </r>
        <r>  0.0001  0.0055  0.0024  0.0027  0.0000  0.0000  0.0000  0.0000  0.0000 </r>
        <r>  0.0002  0.0150  0.0019  0.0040  0.0000  0.0000  0.0000  0.0000  0.0000 </r>
        <r>  0.0006  0.0035  0.0083  0.0010  0.0000  0.0000  0.0000  0.0000  0.0000 </r>
        <r>  0.0003  0.0026  0.0054  0.0013  0.0000  0.0000  0.0000  0.0000  0.0000 </r>
        <r>  0.0003  0.0002  0.0060  0.0036  0.0000  0.0000  0.0000  0.0000  0.0000 </r>
        <r>  0.0003  0.0023  0.0036  0.0002  0.0000  0.0000  0.0000  0.0000  0.0000 </r>
        <r>  0.0013  0.0008  0.0126  0.0002  0.0000  0.0000  0.0000  0.0000  0.0000 </r>
        <r>  0.0004  0.0008  0.0065  0.0023  0.0000  0.0000  0.0000  0.0000  0.0000 </r>
       </set>
       <set comment="band 47">
        <r>  0.0048  0.0006  0.0017  0.0008  0.0000  0.0000  0.0025  0.0000  0.0000 </r>
        <r>  0.0032  0.0008  0.0014  0.0006  0.0000  0.0000  0.0020  0.0000  0.0000 </r>
        <r>  0.0000  0.0017  0.0000  0.0037  0.0000  0.0000  0.0000  0.0000  0.0000 </r>
        <r>  0.0000  0.0012  0.0000  0.0049  0.0000  0.0000  0.0000  0.0000  0.0000 </r>
        <r>  0.0018  0.0010  0.0016  0.0051  0.0000  0.0000  0.0000  0.0000  0.0000 </r>
        <r>  0.0000  0.0006  0.0000  0.0016  0.0000  0.0000  0.0000  0.0000  0.0000 </r>
        <r>  0.0017  0.0055  0.0014  0.0002  0.0000  0.0000  0.0000  0.0000  0.0000 </r>
        <r>  0.0011  0.0010  0.0016  0.0037  0.0000  0.0000  0.0000  0.0000  0.0000 </r>
        <r>  0.0000  0.0002  0.0000  0.0007  0.0000  0.0000  0.0000  0.0000  0.0000 </r>
        <r>  0.0010  0.0041  0.0014  0.0005  0.0000  0.0000  0.0000  0.0000  0.0000 </r>
       </set>
       <set comment="band 48">
        <r>  0.0004  0.0007  0.0062  0.0018  0.0002  0.0003  0.0003  0.0000  0.0005 </r>
        <r>  0.0043  0.0011  0.0061  0.0004  0.0004  0.0002  0.0000  0.0003  0.0005 </r>
        <r>  0.0032  0.0002  0.0155  0.0004  0.0000  0.0000  0.0000  0.0000  0.0000 </r>
        <r>  0.0022  0.0033  0.0092  0.0006  0.0000  0.0000  0.0000  0.0000  0.0000 </r>
        <r>  0.0003  0.0004  0.0012  0.0013  0.0000  0.0000  0.0000  0.0000  0.0000 </r>
        <r>  0.0016  0.0014  0.0069  0.0009  0.0000  0.0000  0.0000  0.0000  0.0000 </r>
        <r>  0.0009  0.0018  0.0000  0.0010  0.0000  0.0000  0.0000  0.0000  0.0000 </r>
        <r>  0.0001  0.0007  0.0004  0.0014  0.0000  0.0000  0.0000  0.0000  0.0000 </r>
        <r>  0.0007  0.0003  0.0018  0.0001  0.0000  0.0000  0.0000  0.0000  0.0000 </r>
        <r>  0.0001  0.0001  0.0017  0.0023  0.0000  0.0000  0.0000  0.0000  0.0000 </r>
       </set>
      </set>
     </set>
    </set>
   </array>
  </projected>
 </calculation>
 <structure name="finalpos" >
  <crystal>
   <varray name="basis" >
    <v>       5.82036648       0.00000033       0.00000000 </v>
    <v>       2.91018269       5.04058521      -0.00000000 </v>
    <v>      -0.00000000       0.00000000      21.34563615 </v>
   </varray>
   <i name="volume">    626.23938762 </i>
   <varray name="rec_basis" >
    <v>       0.17181049      -0.09919482       0.00000000 </v>
    <v>      -0.00000001       0.19838967      -0.00000000 </v>
    <v>      -0.00000000       0.00000000       0.04684798 </v>
   </varray>
  </crystal>
  <varray name="positions" >
   <v>       0.33333300       0.33333300       0.49997864 </v>
   <v>       0.66666700       0.66666700       0.49997193 </v>
   <v>      -0.00000000      -0.00000000       0.44549813 </v>
   <v>      -0.00000000      -0.00000000       0.54964150 </v>
   <v>       0.65120894      -0.00000800       0.57140234 </v>
   <v>      -0.00000800       0.34880006       0.57140234 </v>
   <v>       0.34880006       0.65120894       0.57140234 </v>
   <v>       0.36170332      -0.00001929       0.43023426 </v>
   <v>      -0.00001929       0.63831497       0.43023426 </v>
   <v>       0.63831497       0.36170332       0.43023426 </v>
  </varray>
  <varray name="selective"  type="logical" >
   <v type="logical" >  T  T  T </v>
   <v type="logical" >  T  T  T </v>
   <v type="logical" >  T  T  T </v>
   <v type="logical" >  T  T  T </v>
   <v type="logical" >  T  T  T </v>
   <v type="logical" >  T  T  T </v>
   <v type="logical" >  T  T  T </v>
   <v type="logical" >  T  T  T </v>
   <v type="logical" >  T  T  T </v>
   <v type="logical" >  T  T  T </v>
  </varray>
  <nose>
   <v>      -3.00000000       0.00000000       0.00010000       0.00010000 </v>
  </nose>
 </structure>
</modeling>
