unknown system                          
           1
     6.907777   -0.000000    0.000000
     3.453888    5.982310    0.000000
     0.000000    0.000000   23.444588
   Ni   Si   P    S 
   2   1   1   6
Direct configuration=     1
   0.33333300  0.33333300  0.49992500
   0.66666700  0.66666700  0.50007500
   0.00000000  0.00000000  0.44821600
   0.00000000  0.00000000  0.55178400
   0.62635700  0.00042000  0.57375200
   0.00042000  0.37322400  0.57375200
   0.37322400  0.62635700  0.57375200
   0.37364300  0.99958000  0.42624800
   0.99958000  0.62677600  0.42624800
   0.62677600  0.37364300  0.42624800
unknown system                          
           1
     5.875226    0.000000   -0.000000
     2.937613    5.088095    0.000000
    -0.000000    0.000000   21.376525
   Ni   Si   P    S 
   2   1   1   6
Direct configuration=     2
   0.33333300  0.33333300  0.49993627
   0.66666700  0.66666700  0.50004750
   0.00000000  0.00000000  0.44814025
  -0.00000000  0.00000000  0.55191755
   0.63542397  0.00039623  0.57027483
   0.00039623  0.36418080  0.57027483
   0.36418080  0.63542397  0.57027483
   0.36317043  0.99961604  0.42971131
   0.99961604  0.63721253  0.42971131
   0.63721253  0.36317043  0.42971131
unknown system                          
           1
     5.358920    0.000000   -0.000000
     2.679460    4.640960    0.000000
    -0.000000    0.000000   20.342431
   Ni   Si   P    S 
   2   1   1   6
Direct configuration=     3
   0.33333300  0.33333300  0.49994245
   0.66666700  0.66666700  0.50003242
   0.00000000  0.00000000  0.44809871
  -0.00000000  0.00000000  0.55199079
   0.64075452  0.00038226  0.56836794
   0.00038226  0.35886422  0.56836794
   0.35886422  0.64075452  0.56836794
   0.35701351  0.99963723  0.43161061
   0.99963723  0.64334826  0.43161061
   0.64334826  0.35701351  0.43161061
unknown system                          
           1
     5.747896    0.000000   -0.000000
     2.873948    4.977824    0.000000
    -0.000000    0.000000   21.121499
   Ni   Si   P    S 
   2   1   1   6
Direct configuration=     4
   0.33333300  0.33333300  0.49993756
   0.66666700  0.66666700  0.50004436
   0.00000000 -0.00000000  0.44813159
  -0.00000000  0.00000000  0.55193281
   0.63635166  0.00039380  0.56987759
   0.00039380  0.36325554  0.56987759
   0.36325554  0.63635166  0.56987759
   0.36209892  0.99961973  0.43010697
   0.99961973  0.63828035  0.43010697
   0.63828035  0.36209892  0.43010697
unknown system                          
           1
     5.767214    0.000000   -0.000000
     2.883606    4.994553    0.000000
    -0.000000    0.000000   21.160190
   Ni   Si   P    S 
   2   1   1   6
Direct configuration=     5
   0.33333300  0.33333300  0.49993733
   0.66666700  0.66666700  0.50004493
   0.00000000 -0.00000000  0.44813317
  -0.00000000  0.00000000  0.55193003
   0.63614780  0.00039433  0.56994980
   0.00039433  0.36345887  0.56994980
   0.36345887  0.63614780  0.56994980
   0.36233439  0.99961892  0.43003505
   0.99961892  0.63804569  0.43003505
   0.63804569  0.36233439  0.43003505
unknown system                          
           1
     5.800188    0.000000   -0.000000
     2.900094    5.023110    0.000000
    -0.000000    0.000000   21.226233
   Ni   Si   P    S 
   2   1   1   6
Direct configuration=     6
   0.33333300  0.33333300  0.49993693
   0.66666700  0.66666700  0.50004590
   0.00000000 -0.00000000  0.44813585
  -0.00000000  0.00000000  0.55192531
   0.63580098  0.00039524  0.57007283
   0.00039524  0.36380477  0.57007283
   0.36380477  0.63580098  0.57007283
   0.36273497  0.99961754  0.42991251
   0.99961754  0.63764649  0.42991251
   0.63764649  0.36273497  0.42991251
unknown system                          
           1
     5.791422    0.000000   -0.000000
     2.895711    5.015519    0.000000
    -0.000000    0.000000   21.208677
   Ni   Si   P    S 
   2   1   1   6
Direct configuration=     7
   0.33333300  0.33333300  0.49993703
   0.66666700  0.66666700  0.50004564
   0.00000000 -0.00000000  0.44813514
  -0.00000000  0.00000000  0.55192656
   0.63589265  0.00039500  0.57004022
   0.00039500  0.36371334  0.57004022
   0.36371334  0.63589265  0.57004022
   0.36262908  0.99961791  0.42994498
   0.99961791  0.63775201  0.42994498
   0.63775201  0.36262908  0.42994498
unknown system                          
           1
     5.783395    0.000000   -0.000000
     2.891697    5.008567    0.000000
    -0.000000   -0.000000   21.371876
   Ni   Si   P    S 
   2   1   1   6
Direct configuration=     8
   0.33333300  0.33333300  0.49969013
   0.66666700  0.66666700  0.49980973
  -0.00000000 -0.00000000  0.44685797
  -0.00000000 -0.00000000  0.55318016
   0.64209482  0.00029806  0.57018528
   0.00029806  0.35760812  0.57018528
   0.35760812  0.64209482  0.57018528
   0.36038252  0.99973672  0.42996873
   0.99973672  0.63987976  0.42996873
   0.63987976  0.36038252  0.42996873
unknown system                          
           1
     5.783809    0.000000   -0.000000
     2.891904    5.008926    0.000000
    -0.000000   -0.000000   21.363454
   Ni   Si   P    S 
   2   1   1   6
Direct configuration=     9
   0.33333300  0.33333300  0.49970277
   0.66666700  0.66666700  0.49982181
  -0.00000000 -0.00000000  0.44692338
  -0.00000000 -0.00000000  0.55311596
   0.64177432  0.00030307  0.57017785
   0.00030307  0.35792361  0.57017785
   0.35792361  0.64177432  0.57017785
   0.36049861  0.99973058  0.42996751
   0.99973058  0.63976981  0.42996751
   0.63976981  0.36049861  0.42996751
unknown system                          
           1
     5.808107    0.000000   -0.000000
     2.904053    5.029968   -0.000000
    -0.000000    0.000000   21.362567
   Ni   Si   P    S 
   2   1   1   6
Direct configuration=    10
   0.33333300  0.33333300  0.49941886
   0.66666700  0.66666700  0.49952664
  -0.00000000 -0.00000000  0.44725353
  -0.00000000 -0.00000000  0.55223148
   0.64653089  0.00016879  0.57056628
   0.00016879  0.35330133  0.57056628
   0.35330133  0.64653089  0.57056628
   0.36009104  0.99980758  0.42995688
   0.99980758  0.64010038  0.42995688
   0.64010038  0.36009104  0.42995688
unknown system                          
           1
     5.819771    0.000000   -0.000000
     2.909885    5.040069   -0.000000
    -0.000000    0.000000   21.362141
   Ni   Si   P    S 
   2   1   1   6
Direct configuration=    11
   0.33333300  0.33333300  0.49928256
   0.66666700  0.66666700  0.49938493
  -0.00000000 -0.00000000  0.44741203
  -0.00000000 -0.00000000  0.55180687
   0.64880474  0.00010459  0.57075276
   0.00010459  0.35109167  0.57075276
   0.35109167  0.64880474  0.57075276
   0.35989620  0.99984439  0.42995178
   0.99984439  0.64025841  0.42995178
   0.64025841  0.35989620  0.42995178
unknown system                          
           1
     5.815525    0.000000    0.000000
     2.907762    5.036392   -0.000000
    -0.000000    0.000000   21.346717
   Ni   Si   P    S 
   2   1   1   6
Direct configuration=    12
   0.33333300  0.33333300  0.49931043
   0.66666700  0.66666700  0.49939180
  -0.00000000 -0.00000000  0.44723870
  -0.00000000 -0.00000000  0.55111740
   0.64850460  0.00008999  0.57090447
   0.00008999  0.35140642  0.57090447
   0.35140642  0.64850460  0.57090447
   0.36000977  0.99986478  0.43007608
   0.99986478  0.64012446  0.43007608
   0.64012446  0.36000977  0.43007608
unknown system                          
           1
     5.814633    0.000000    0.000000
     2.907316    5.035620   -0.000000
    -0.000000    0.000000   21.343477
   Ni   Si   P    S 
   2   1   1   6
Direct configuration=    13
   0.33333300  0.33333300  0.49931629
   0.66666700  0.66666700  0.49939324
  -0.00000000 -0.00000000  0.44720227
  -0.00000000 -0.00000000  0.55097250
   0.64844151  0.00008692  0.57093636
   0.00008692  0.35147257  0.57093636
   0.35147257  0.64844151  0.57093636
   0.36003363  0.99986906  0.43010221
   0.99986906  0.64009630  0.43010221
   0.64009630  0.36003363  0.43010221
unknown system                          
           1
     5.804710    0.000000    0.000000
     2.902355    5.027026   -0.000000
    -0.000000    0.000000   21.327102
   Ni   Si   P    S 
   2   1   1   6
Direct configuration=    14
   0.33333300  0.33333300  0.49940877
   0.66666700  0.66666700  0.49946818
  -0.00000000 -0.00000000  0.44675897
  -0.00000000 -0.00000000  0.55069968
   0.64890045  0.00008383  0.57105840
   0.00008383  0.35101672  0.57105840
   0.35101672  0.64890045  0.57105840
   0.36029803  0.99991394  0.43016306
   0.99991394  0.63978703  0.43016306
   0.63978703  0.36029803  0.43016306
unknown system                          
           1
     5.808000    0.000000    0.000000
     2.904000    5.029876   -0.000000
    -0.000000    0.000000   21.332531
   Ni   Si   P    S 
   2   1   1   6
Direct configuration=    15
   0.33333300  0.33333300  0.49937808
   0.66666700  0.66666700  0.49944331
  -0.00000000 -0.00000000  0.44690606
  -0.00000000 -0.00000000  0.55079020
   0.64874803  0.00008485  0.57101791
   0.00008485  0.35116812  0.57101791
   0.35116812  0.64874803  0.57101791
   0.36021022  0.99989904  0.43014287
   0.99989904  0.63988975  0.43014287
   0.63988975  0.36021022  0.43014287
unknown system                          
           1
     5.808155    0.000000    0.000000
     2.904077    5.030010   -0.000000
    -0.000000    0.000000   21.341827
   Ni   Si   P    S 
   2   1   1   6
Direct configuration=    16
   0.33333300  0.33333300  0.49945920
   0.66666700  0.66666700  0.49951233
  -0.00000000 -0.00000000  0.44658249
  -0.00000000 -0.00000000  0.55066736
   0.64914602  0.00007651  0.57110335
   0.00007651  0.35077847  0.57110335
   0.35077847  0.64914602  0.57110335
   0.36049982  0.99992209  0.43015619
   0.99992209  0.63957709  0.43015619
   0.63957709  0.36049982  0.43015619
unknown system                          
           1
     5.808619    0.000000    0.000000
     2.904309    5.030411   -0.000000
    -0.000000    0.000000   21.369716
   Ni   Si   P    S 
   2   1   1   6
Direct configuration=    17
   0.33333300  0.33333300  0.49970247
   0.66666700  0.66666700  0.49971930
  -0.00000000 -0.00000000  0.44561220
  -0.00000000 -0.00000000  0.55029898
   0.65033999  0.00005147  0.57135954
   0.00005147  0.34960955  0.57135954
   0.34960955  0.65033999  0.57135954
   0.36136862  0.99999124  0.43019614
   0.99999125  0.63863914  0.43019614
   0.63863914  0.36136862  0.43019614
unknown system                          
           1
     5.812956    0.000000    0.000000
     2.906477    5.034167   -0.000000
    -0.000000    0.000000   21.362121
   Ni   Si   P    S 
   2   1   1   6
Direct configuration=    18
   0.33333300  0.33333300  0.49985593
   0.66666700  0.66666700  0.49985717
  -0.00000000 -0.00000000  0.44538511
  -0.00000000 -0.00000000  0.54988499
   0.65087068  0.00003720  0.57146507
   0.00003720  0.34909313  0.57146507
   0.34909313  0.65087068  0.57146507
   0.36188047  0.00002322  0.43020720
   0.00002322  0.63809531  0.43020720
   0.63809531  0.36188047  0.43020720
unknown system                          
           1
     5.815003    0.000000   -0.000000
     2.907501    5.035941   -0.000000
    -0.000000    0.000000   21.358535
   Ni   Si   P    S 
   2   1   1   6
Direct configuration=    19
   0.33333300  0.33333300  0.49992842
   0.66666700  0.66666700  0.49992229
  -0.00000000 -0.00000000  0.44527784
  -0.00000000 -0.00000000  0.54968943
   0.65112107  0.00003046  0.57151492
   0.00003046  0.34884947  0.57151492
   0.34884947  0.65112107  0.57151492
   0.36212197  0.00003831  0.43021242
   0.00003831  0.63783872  0.43021242
   0.63783872  0.36212197  0.43021242
unknown system                          
           1
     5.817581    0.000000    0.000000
     2.908790    5.038173   -0.000000
    -0.000000    0.000000   21.352336
   Ni   Si   P    S 
   2   1   1   6
Direct configuration=    20
   0.33333300  0.33333300  0.49995255
   0.66666700  0.66666700  0.49994614
  -0.00000000 -0.00000000  0.44538370
  -0.00000000 -0.00000000  0.54966640
   0.65116331  0.00001197  0.57146082
   0.00001197  0.34882572  0.57146082
   0.34882572  0.65116331  0.57146082
   0.36192072  0.00001062  0.43022291
   0.00001062  0.63806766  0.43022291
   0.63806766  0.36192072  0.43022291
unknown system                          
           1
     5.820366    0.000000    0.000000
     2.910183    5.040585   -0.000000
    -0.000000    0.000000   21.345636
   Ni   Si   P    S 
   2   1   1   6
Direct configuration=    21
   0.33333300  0.33333300  0.49997864
   0.66666700  0.66666700  0.49997193
  -0.00000000 -0.00000000  0.44549813
  -0.00000000 -0.00000000  0.54964150
   0.65120894 -0.00000800  0.57140234
  -0.00000800  0.34880006  0.57140234
   0.34880006  0.65120894  0.57140234
   0.36170332 -0.00001929  0.43023426
  -0.00001929  0.63831497  0.43023426
   0.63831497  0.36170332  0.43023426
