 vasp.5.4.4.18Apr17-6-g9f103f2a35 (build May  1 2020 15:48:39) complex           
 executed on             LinuxGNU date 2020.07.07  10:59:41
 running on   16 total cores
 distrk:  each k-point on   16 cores,    1 groups
 distr:  one band on NCORES_PER_BAND=   1 cores,   16 groups


--------------------------------------------------------------------------------------------------------


 INCAR:
 POTCAR:   PAW_PBE Fe 06Sep2000                   
 POTCAR:   PAW_PBE Ge 05Jan2001                   
 POTCAR:    PAW_PBE S 17Jan2003                   

 ----------------------------------------------------------------------------- 
|                                                                             |
|           W    W    AA    RRRRR   N    N  II  N    N   GGGG   !!!           |
|           W    W   A  A   R    R  NN   N  II  NN   N  G    G  !!!           |
|           W    W  A    A  R    R  N N  N  II  N N  N  G       !!!           |
|           W WW W  AAAAAA  RRRRR   N  N N  II  N  N N  G  GGG   !            |
|           WW  WW  A    A  R   R   N   NN  II  N   NN  G    G                |
|           W    W  A    A  R    R  N    N  II  N    N   GGGG   !!!           |
|                                                                             |
|      For optimal performance we recommend to set                            |
|        NCORE= 4 - approx SQRT( number of cores)                             |
|      NCORE specifies how many cores store one orbital (NPAR=cpu/NCORE).     |
|      This setting can  greatly improve the performance of VASP for DFT.     |
|      The default,   NCORE=1            might be grossly inefficient         |
|      on modern multi-core architectures or massively parallel machines.     |
|      Do your own testing !!!!                                               |
|      Unfortunately you need to use the default for GW and RPA calculations. |
|      (for HF NCORE is supported but not extensively tested yet)             |
|                                                                             |
 ----------------------------------------------------------------------------- 


 ----------------------------------------------------------------------------- 
|                                                                             |
|  ADVICE TO THIS USER RUNNING 'VASP/VAMP'   (HEAR YOUR MASTER'S VOICE ...):  |
|                                                                             |
|      You have switched on vdW-DFT.                                          |
|      This routine was written and supplied by Jiri Klimes.                  |
|      We recommed that you carefully read and cite the following             |
|      publication                                                            |
|      J. Klimes, D.R. Bowler, A. Michelides                                  |
|        J. Phys.: Cond Matt. 22 022201 (2010)                                |
|      J. Klimes, D.R. Bowler, A. Michelides                                  |
|        Phys. Rev. B. 83, 195131 (2011)                                      |
|      and references therein.                                                |
|                                                                             |
 ----------------------------------------------------------------------------- 

 POTCAR:   PAW_PBE Fe 06Sep2000                   
   VRHFIN =Fe:  d7 s1                                                           
   LEXCH  = PE                                                                  
   EATOM  =   594.4687 eV,   43.6922 Ry                                         
                                                                                
   TITEL  = PAW_PBE Fe 06Sep2000                                                
   LULTRA =        F    use ultrasoft PP ?                                      
   IUNSCR =        1    unscreen: 0-lin 1-nonlin 2-no                           
   RPACOR =    2.000    partial core radius                                     
   POMASS =   55.847; ZVAL   =    8.000    mass and valenz                      
   RCORE  =    2.300    outmost cutoff radius                                   
   RWIGS  =    2.460; RWIGS  =    1.302    wigner-seitz radius (au A)           
   ENMAX  =  267.883; ENMIN  =  200.912 eV                                      
   RCLOC  =    1.701    cutoff for local pot                                    
   LCOR   =        T    correct aug charges                                     
   LPAW   =        T    paw PP                                                  
   EAUG   =  511.368                                                            
   DEXC   =    -.022                                                            
   RMAX   =    2.817    core radius for proj-oper                               
   RAUG   =    1.300    factor for augmentation sphere                          
   RDEP   =    2.442    radius for radial grids                                 
   QCUT   =   -4.437; QGAM   =    8.874    optimization parameters              
                                                                                
   Description                                                                  
     l     E      TYP  RCUT    TYP  RCUT                                        
     2   .000     23  2.300                                                     
     2   .000     23  2.300                                                     
     0   .000     23  2.300                                                     
     0   .000     23  2.300                                                     
     1  -.200     23  2.300                                                     
     1   .000     23  2.300                                                     
     3   .000      7   .000                                                     
  local pseudopotential read in
  partial core-charges read in
  atomic valenz-charges read in
  non local Contribution for L=           2  read in
    real space projection operators read in
  non local Contribution for L=           2  read in
    real space projection operators read in
  non local Contribution for L=           0  read in
    real space projection operators read in
  non local Contribution for L=           0  read in
    real space projection operators read in
  non local Contribution for L=           1  read in
    real space projection operators read in
  non local Contribution for L=           1  read in
    real space projection operators read in
    PAW grid and wavefunctions read in

   number of l-projection  operators is LMAX  =           6
   number of lm-projection operators is LMMAX =          18

 POTCAR:   PAW_PBE Ge 05Jan2001                   
   VRHFIN =Ge: s2p2                                                             
   LEXCH  = PE                                                                  
   EATOM  =   104.9960 eV,    7.7170 Ry                                         
                                                                                
   TITEL  = PAW_PBE Ge 05Jan2001                                                
   LULTRA =        F    use ultrasoft PP ?                                      
   IUNSCR =        1    unscreen: 0-lin 1-nonlin 2-no                           
   RPACOR =    2.170    partial core radius                                     
   POMASS =   72.610; ZVAL   =    4.000    mass and valenz                      
   RCORE  =    2.300    outmost cutoff radius                                   
   RWIGS  =    2.300; RWIGS  =    1.217    wigner-seitz radius (au A)           
   ENMAX  =  173.807; ENMIN  =  130.355 eV                                      
   ICORE  =        3    local potential                                         
   LCOR   =        T    correct aug charges                                     
   LPAW   =        T    paw PP                                                  
   EAUG   =  385.843                                                            
   DEXC   =    -.138                                                            
   RMAX   =    3.497    core radius for proj-oper                               
   RAUG   =    1.300    factor for augmentation sphere                          
   RDEP   =    2.318    radius for radial grids                                 
   QCUT   =   -3.574; QGAM   =    7.148    optimization parameters              
                                                                                
   Description                                                                  
     l     E      TYP  RCUT    TYP  RCUT                                        
     0   .000     23  2.300                                                     
     0   .000     23  2.300                                                     
     1   .000     23  2.300                                                     
     1   .000     23  2.300                                                     
     2   .000     23  2.300                                                     
     3  -.100      7  2.300                                                     
  local pseudopotential read in
  partial core-charges read in
  atomic valenz-charges read in
  non local Contribution for L=           0  read in
    real space projection operators read in
  non local Contribution for L=           0  read in
    real space projection operators read in
  non local Contribution for L=           1  read in
    real space projection operators read in
  non local Contribution for L=           1  read in
    real space projection operators read in
  non local Contribution for L=           2  read in
    real space projection operators read in
    PAW grid and wavefunctions read in

   number of l-projection  operators is LMAX  =           5
   number of lm-projection operators is LMMAX =          13

 POTCAR:    PAW_PBE S 17Jan2003                   
   VRHFIN =S : s2p4                                                             
   LEXCH  = PE                                                                  
   EATOM  =   276.8230 eV,   20.3459 Ry                                         
                                                                                
   TITEL  = PAW_PBE S 17Jan2003                                                 
   LULTRA =        F    use ultrasoft PP ?                                      
   IUNSCR =        1    unscreen: 0-lin 1-nonlin 2-no                           
   RPACOR =    1.500    partial core radius                                     
   POMASS =   32.066; ZVAL   =    6.000    mass and valenz                      
   RCORE  =    1.900    outmost cutoff radius                                   
   RWIGS  =    2.200; RWIGS  =    1.164    wigner-seitz radius (au A)           
   ENMAX  =  280.000; ENMIN  =  194.016 eV                                      
   ICORE  =        2    local potential                                         
   LCOR   =        T    correct aug charges                                     
   LPAW   =        T    paw PP                                                  
   EAUG   =  335.092                                                            
   DEXC   =     .000                                                            
   RMAX   =    2.867    core radius for proj-oper                               
   RAUG   =    1.300    factor for augmentation sphere                          
   RDEP   =    1.954    radius for radial grids                                 
   QCUT   =   -4.360; QGAM   =    8.721    optimization parameters              
                                                                                
   Description                                                                  
     l     E      TYP  RCUT    TYP  RCUT                                        
     0   .000     23  1.900                                                     
     0   .000     23  1.900                                                     
     1   .000     23  1.900                                                     
     1   .000     23  1.900                                                     
     2   .000     23  1.900                                                     
  local pseudopotential read in
  partial core-charges read in
  atomic valenz-charges read in
  non local Contribution for L=           0  read in
    real space projection operators read in
  non local Contribution for L=           0  read in
    real space projection operators read in
  non local Contribution for L=           1  read in
    real space projection operators read in
  non local Contribution for L=           1  read in
    real space projection operators read in
    PAW grid and wavefunctions read in

   number of l-projection  operators is LMAX  =           4
   number of lm-projection operators is LMMAX =           8

 Optimization of the real space projectors (new method)

 maximal supplied QI-value         = 16.25
 optimisation between [QCUT,QGAM] = [ 11.54, 23.24] = [ 37.28,151.24] Ry 
 Optimized for a Real-space Cutoff    1.53 Angstroem

   l    n(q)    QCUT    max X(q) W(low)/X(q) W(high)/X(q)  e(spline) 
   2     10    11.539     4.378    0.86E-05    0.15E-04    0.46E-07
   2     10    11.539    23.237    0.11E-03    0.14E-03    0.22E-06
   0     11    11.539    17.641    0.19E-04    0.14E-05    0.18E-07
   0     11    11.539    50.908    0.43E-04    0.16E-04    0.30E-06
   1     10    11.539     6.148    0.11E-04    0.38E-05    0.26E-07
   1     10    11.539     8.345    0.44E-04    0.25E-04    0.11E-06
 Optimization of the real space projectors (new method)

 maximal supplied QI-value         = 16.25
 optimisation between [QCUT,QGAM] = [ 11.54, 23.24] = [ 37.28,151.24] Ry 
 Optimized for a Real-space Cutoff    1.28 Angstroem

   l    n(q)    QCUT    max X(q) W(low)/X(q) W(high)/X(q)  e(spline) 
   0      9    11.539     8.651    0.22E-04    0.16E-04    0.10E-07
   0      9    11.539    33.192    0.11E-03    0.16E-03    0.65E-07
   1      8    11.539     5.899    0.37E-04    0.28E-04    0.43E-07
   1      8    11.539    27.289    0.22E-03    0.28E-04    0.14E-06
   2      8    11.539     4.673    0.11E-03    0.18E-03    0.58E-07
 Optimization of the real space projectors (new method)

 maximal supplied QI-value         = 19.84
 optimisation between [QCUT,QGAM] = [ 11.51, 23.22] = [ 37.09,150.92] Ry 
 Optimized for a Real-space Cutoff    1.21 Angstroem

   l    n(q)    QCUT    max X(q) W(low)/X(q) W(high)/X(q)  e(spline) 
   0      8    11.508     5.487    0.18E-04    0.22E-05    0.47E-08
   0      8    11.508    85.627    0.96E-04    0.18E-03    0.54E-07
   1      8    11.508     3.530    0.17E-04    0.28E-04    0.21E-07
   1      8    11.508    42.714    0.18E-03    0.63E-04    0.92E-07

 ----------------------------------------------------------------------------- 
|                                                                             |
|  ADVICE TO THIS USER RUNNING 'VASP/VAMP'   (HEAR YOUR MASTER'S VOICE ...):  |
|                                                                             |
|      You enforced a specific xc-type in the INCAR file,                     |
|      a different type was found on the POTCAR file                          |
|          I HOPE YOU KNOW, WHAT YOU ARE  DOING                               |
|                                                                             |
 ----------------------------------------------------------------------------- 

 PAW_PBE Fe 06Sep2000                   :
 energy of atom  1       EATOM= -594.4687
 kinetic energy error for atom=    0.0026 (will be added to EATOM!!)
 PAW_PBE Ge 05Jan2001                   :
 energy of atom  2       EATOM= -104.9960
 kinetic energy error for atom=    0.0002 (will be added to EATOM!!)
  PAW_PBE S 17Jan2003                   :
 energy of atom  3       EATOM= -276.8230
 kinetic energy error for atom=    0.0016 (will be added to EATOM!!)


 POSCAR: Fe2 Ge2 S6                              
  positions in direct lattice
  velocities in cartesian coordinates
  No initial velocities read in
 exchange correlation table for  LEXCH =       42
   RHO(1)=    0.500       N(1)  =     2000
   RHO(2)=  100.500       N(2)  =     4000



--------------------------------------------------------------------------------------------------------


 ion  position               nearest neighbor table
   1  0.333  0.333  0.500-   6 2.78   5 2.78   7 2.78   8 2.78  10 2.78   9 2.78
   2  0.667  0.667  0.500-   9 2.78   8 2.78  10 2.78   5 2.78   7 2.78   6 2.78
   3  0.000  0.000  0.448-   4 2.43   8 2.63  10 2.63   9 2.63
   4  0.000  0.000  0.552-   3 2.43   5 2.63   7 2.63   6 2.63
   5  0.626  0.000  0.574-   4 2.63   1 2.78   2 2.78
   6  0.000  0.373  0.574-   4 2.63   1 2.78   2 2.78
   7  0.373  0.626  0.574-   4 2.63   1 2.78   2 2.78
   8  0.374  1.000  0.426-   3 2.63   2 2.78   1 2.78
   9  1.000  0.627  0.426-   3 2.63   2 2.78   1 2.78
  10  0.627  0.374  0.426-   3 2.63   2 2.78   1 2.78

  LATTYP: Found a hexagonal cell.
 ALAT       =     6.9077769333
 C/A-ratio  =     3.3939410937
  
  Lattice vectors:
  
 A1 = (   3.4538890000,  -5.9823100000,   0.0000000000)
 A2 = (  -6.9077770000,   0.0000000000,   0.0000000000)
 A3 = (   0.0000000000,   0.0000000000, -23.4445880000)


Analysis of symmetry for initial positions (statically):
=====================================================================
 Subroutine PRICEL returns:
 Original cell was already a primitive cell.
 

 Routine SETGRP: Setting up the symmetry group for a 
 hexagonal supercell.


 Subroutine GETGRP returns: Found  6 space group operations
 (whereof  6 operations were pure point group operations)
 out of a pool of 24 trial point group operations.


The static configuration has the point symmetry S_6 .


Analysis of symmetry for dynamics (positions and initial velocities):
=====================================================================
 Subroutine PRICEL returns:
 Original cell was already a primitive cell.
 

 Routine SETGRP: Setting up the symmetry group for a 
 hexagonal supercell.


 Subroutine GETGRP returns: Found  6 space group operations
 (whereof  6 operations were pure point group operations)
 out of a pool of 24 trial point group operations.


The dynamic configuration has the point symmetry S_6 .


Analysis of constrained symmetry for selective dynamics:
=====================================================================
 Subroutine PRICEL returns:
 Original cell was already a primitive cell.
 

 Routine SETGRP: Setting up the symmetry group for a 
 hexagonal supercell.


 Subroutine GETGRP returns: Found  6 space group operations
 (whereof  6 operations were pure point group operations)
 out of a pool of 24 trial point group operations.


The constrained configuration has the point symmetry S_6 .


Analysis of structural, dynamic, and magnetic symmetry:
=====================================================================
 Subroutine PRICEL returns:
 Original cell was already a primitive cell.
 

 Routine SETGRP: Setting up the symmetry group for a 
 hexagonal supercell.


 Subroutine GETGRP returns: Found  6 space group operations
 (whereof  6 operations were pure point group operations)
 out of a pool of 24 trial point group operations.


The magnetic configuration has the point symmetry S_6 .


 Subroutine INISYM returns: Found  6 space group operations
 (whereof  6 operations are pure point group operations),
 and found     1 'primitive' translations



 KPOINTS: Kpoints from vasprun.xml                

Automatic generation of k-mesh.
Space group operators:
 irot       det(A)        alpha          n_x          n_y          n_z        tau_x        tau_y        tau_z
    1     1.000000     0.000000     1.000000     0.000000     0.000000     0.000000     0.000000     0.000000
    2    -1.000000     0.000000     1.000000     0.000000     0.000000     0.000000     0.000000     0.000000
    3     1.000000   120.000000     0.000000     0.000000     1.000000     0.000000     0.000000     0.000000
    4    -1.000000   120.000000     0.000000     0.000000     1.000000     0.000000     0.000000     0.000000
    5     1.000000   120.000000     0.000000     0.000000    -1.000000     0.000000     0.000000     0.000000
    6    -1.000000   120.000000     0.000000     0.000000    -1.000000     0.000000     0.000000     0.000000
 
 Subroutine IBZKPT returns following result:
 ===========================================
 
 Found      5 irreducible k-points:
 
 Following reciprocal coordinates:
            Coordinates               Weight
  0.000000  0.000000  0.000000      1.000000
  0.200000  0.000000  0.000000      6.000000
  0.400000  0.000000  0.000000      6.000000
  0.400000  0.200000  0.000000      6.000000
 -0.400000  0.200000  0.000000      6.000000
 
 Following cartesian coordinates:
            Coordinates               Weight
  0.000000  0.000000  0.000000      1.000000
  0.028953 -0.016716  0.000000      6.000000
  0.057906 -0.033432  0.000000      6.000000
  0.057906  0.000000  0.000000      6.000000
 -0.057906  0.066864  0.000000      6.000000
 
 TETIRR: Found     15 inequivalent tetrahedra from      150


--------------------------------------------------------------------------------------------------------




 Dimension of arrays:
   k-points           NKPTS =      5   k-points in BZ     NKDIM =      5   number of bands    NBANDS=     48
   number of dos      NEDOS =    301   number of ions     NIONS =     10
   non local maximal  LDIM  =      6   non local SUM 2l+1 LMDIM =     18
   total plane-waves  NPLWV = 524880
   max r-space proj   IRMAX =   8238   max aug-charges    IRDMAX=  29641
   dimension x,y,z NGX =    54 NGY =   54 NGZ =  180
   dimension x,y,z NGXF=   108 NGYF=  108 NGZF=  360
   support grid    NGXF=   108 NGYF=  108 NGZF=  360
   ions per type =               2   2   6
   NGX,Y,Z   is equivalent  to a cutoff of  13.00, 13.00, 12.76 a.u.
   NGXF,Y,Z  is equivalent  to a cutoff of  25.99, 25.99, 25.53 a.u.

 SYSTEM =  unknown system                          
 POSCAR =  Fe2 Ge2 S6                              

 Startparameter for this run:
   NWRITE =      2    write-flag & timer
   PREC   = accura    normal or accurate (medium, high low for compatibility)
   ISTART =      0    job   : 0-new  1-cont  2-samecut
   ICHARG =      2    charge: 1-file 2-atom 10-const
   ISPIN  =      2    spin polarized calculation?
   LNONCOLLINEAR =      F non collinear calculations
   LSORBIT =      F    spin-orbit coupling
   INIWAV =      1    electr: 0-lowe 1-rand  2-diag
   LASPH  =      F    aspherical Exc in radial PAW
   METAGGA=      F    non-selfconsistent MetaGGA calc.

 Electronic Relaxation 1
   ENCUT  =  520.0 eV  38.22 Ry    6.18 a.u.  12.84 12.84 43.59*2*pi/ulx,y,z
   ENINI  =  520.0     initial cutoff
   ENAUG  =  511.4 eV  augmentation charge cutoff
   NELM   =    400;   NELMIN=  2; NELMDL=  0     # of ELM steps 
   EDIFF  = 0.1E-03   stopping-criterion for ELM
   LREAL  =      T    real-space projection
   NLSPLINE    = F    spline interpolate recip. space projectors
   LCOMPAT=      F    compatible to vasp.4.4
   GGA_COMPAT  = T    GGA compatible to vasp.4.4-vasp.4.6
   LMAXPAW     = -100 max onsite density
   LMAXMIX     =    2 max onsite mixed and CHGCAR
   VOSKOWN=      0    Vosko Wilk Nusair interpolation
   ROPT   =   -0.00025  -0.00025  -0.00025
 Ionic relaxation
   EDIFFG = 0.1E-02   stopping-criterion for IOM
   NSW    =     99    number of steps for IOM
   NBLOCK =      1;   KBLOCK =     99    inner block; outer block 
   IBRION =      2    ionic relax: 0-MD 1-quasi-New 2-CG
   NFREE  =      1    steps in history (QN), initial steepest desc. (CG)
   ISIF   =      3    stress and relaxation
   IWAVPR =     11    prediction:  0-non 1-charg 2-wave 3-comb
   ISYM   =      2    0-nonsym 1-usesym 2-fastsym
   LCORR  =      T    Harris-Foulkes like correction to forces

   POTIM  = 0.5000    time-step for ionic-motion
   TEIN   =    0.0    initial temperature
   TEBEG  =    0.0;   TEEND  =   0.0 temperature during run
   SMASS  =  -3.00    Nose mass-parameter (am)
   estimated Nose-frequenzy (Omega)   =  0.10E-29 period in steps =****** mass=  -0.109E-26a.u.
   SCALEE = 1.0000    scale energy and forces
   NPACO  =    256;   APACO  = 16.0  distance and # of slots for P.C.
   PSTRESS=    0.0 pullay stress

  Mass of Ions in am
   POMASS =  55.85 72.61 32.07
  Ionic Valenz
   ZVAL   =   8.00  4.00  6.00
  Atomic Wigner-Seitz radii
   RWIGS  =  -1.00 -1.00 -1.00
  virtual crystal weights 
   VCA    =   1.00  1.00  1.00
   NELECT =      60.0000    total number of electrons
   NUPDOWN=      -1.0000    fix difference up-down

 DOS related values:
   EMIN   =  10.00;   EMAX   =-10.00  energy-range for DOS
   EFERMI =   0.00
   ISMEAR =    -5;   SIGMA  =   0.05  broadening in eV -4-tet -1-fermi 0-gaus

 Electronic relaxation 2 (details)
   IALGO  =     38    algorithm
   LDIAG  =      T    sub-space diagonalisation (order eigenvalues)
   LSUBROT=      F    optimize rotation matrix (better conditioning)
   TURBO    =      0    0=normal 1=particle mesh
   IRESTART =      0    0=no restart 2=restart with 2 vectors
   NREBOOT  =      0    no. of reboots
   NMIN     =      0    reboot dimension
   EREF     =   0.00    reference energy to select bands
   IMIX   =      4    mixing-type and parameters
     AMIX     =   0.40;   BMIX     =  1.00
     AMIX_MAG =   1.60;   BMIX_MAG =  1.00
     AMIN     =   0.01
     WC   =   100.;   INIMIX=   1;  MIXPRE=   1;  MAXMIX= -45

 Intra band minimization:
   WEIMIN = 0.0010     energy-eigenvalue tresh-hold
   EBREAK =  0.52E-06  absolut break condition
   DEPER  =   0.30     relativ break condition  

   TIME   =   0.40     timestep for ELM

  volume/ion in A,a.u.               =      96.88       653.80
  Fermi-wavevector in a.u.,A,eV,Ry     =   0.647702  1.223979  5.707889  0.419518
  Thomas-Fermi vector in A             =   1.716096

 Write flags
   LWAVE        =      F    write WAVECAR
   LDOWNSAMPLE  =      F    k-point downsampling of WAVECAR
   LCHARG       =      T    write CHGCAR
   LVTOT        =      F    write LOCPOT, total local potential
   LVHAR        =      F    write LOCPOT, Hartree potential only
   LELF         =      F    write electronic localiz. function (ELF)
   LORBIT       =     11    0 simple, 1 ext, 2 COOP (PROOUT), +10 PAW based schemes


 Dipole corrections
   LMONO  =      F    monopole corrections only (constant potential shift)
   LDIPOL =      F    correct potential (dipole corrections)
   IDIPOL =      0    1-x, 2-y, 3-z, 4-all directions 
   EPSILON=  1.0000000 bulk dielectric constant

 Exchange correlation treatment:
   GGA     =    BO    GGA type
   LEXCH   =    42    internal setting for exchange type
   VOSKOWN=      0    Vosko Wilk Nusair interpolation
   LHFCALC =     F    Hartree Fock is set to
   LHFONE  =     F    Hartree Fock one center treatment
   AEXX    =    0.0000 exact exchange contribution

 vdW DFT:
   LUSE_VDW   =     T    switch on vdW DFT
   Zab_VDW    =-.8491    correlation parameter
   PARAM1     =0.1833
   PARAM2     =0.2200
   PARAM3     =0.0000
   -- rVV10 --
   BPARAM     = 6.3000
   CPARAM     = 0.0093

 Linear response parameters
   LEPSILON=     F    determine dielectric tensor
   LRPA    =     F    only Hartree local field effects (RPA)
   LNABLA  =     F    use nabla operator in PAW spheres
   LVEL    =     F    velocity operator in full k-point grid
   LINTERFAST=   F  fast interpolation
   KINTER  =     0    interpolate to denser k-point grid
   CSHIFT  =0.1000    complex shift for real part using Kramers Kronig
   OMEGAMAX=  -1.0    maximum frequency
   DEG_THRESHOLD= 0.2000000E-02 threshold for treating states as degnerate
   RTIME   =   -0.100 relaxation time in fs
  (WPLASMAI=    0.000 imaginary part of plasma frequency in eV, 0.658/RTIME)
   DFIELD  = 0.0000000 0.0000000 0.0000000 field for delta impulse in time

 Orbital magnetization related:
   ORBITALMAG=     F  switch on orbital magnetization
   LCHIMAG   =     F  perturbation theory with respect to B field
   DQ        =  0.001000  dq finite difference perturbation B field
   LLRAUG    =     F  two centre corrections for induced B field



--------------------------------------------------------------------------------------------------------


 conjugate gradient relaxation of ions
   using selective dynamics as specified on POSCAR
 charge density and potential will be updated during run
 spin polarized calculation
 Variant of blocked Davidson
 Davidson routine will perform the subspace rotation
 perform sub-space diagonalisation
    after iterative eigenvector-optimisation
 modified Broyden-mixing scheme, WC =      100.0
 initial mixing is a Kerker type mixing with AMIX =  0.4000 and BMIX =      1.0000
 Hartree-type preconditioning will be used
 using additional bands           18
 real space projection scheme for non local part
 use partial core corrections
 calculate Harris-corrections to forces   (improved forces if not selfconsistent)
 use gradient corrections 
 use of overlap-Matrix (Vanderbilt PP)
 Fermi weights with tetrahedron method with Bloechl corrections


--------------------------------------------------------------------------------------------------------


  energy-cutoff  :      520.00
  volume of cell :      968.84
      direct lattice vectors                 reciprocal lattice vectors
     6.907777000 -0.000000000  0.000000000     0.144764372 -0.083579742  0.000000000
     3.453888000  5.982310000  0.000000000     0.000000000  0.167159509 -0.000000000
     0.000000000  0.000000000 23.444588000    -0.000000000  0.000000000  0.042653767

  length of vectors
     6.907777000  6.907776433 23.444588000     0.167159495  0.167159509  0.042653767



 k-points in units of 2pi/SCALE and weight: Kpoints from vasprun.xml                
   0.00000000  0.00000000  0.00000000       0.040
   0.02895287 -0.01671595  0.00000000       0.240
   0.05790575 -0.03343190  0.00000000       0.240
   0.05790575  0.00000000  0.00000000       0.240
  -0.05790575  0.06686380  0.00000000       0.240

 k-points in reciprocal lattice and weights: Kpoints from vasprun.xml                
   0.00000000  0.00000000  0.00000000       0.040
   0.20000000  0.00000000  0.00000000       0.240
   0.40000000  0.00000000  0.00000000       0.240
   0.40000000  0.20000000  0.00000000       0.240
  -0.40000000  0.20000000  0.00000000       0.240

 position of ions in fractional coordinates (direct lattice) 
   0.33333300  0.33333300  0.49992500
   0.66666700  0.66666700  0.50007500
   0.00000000  0.00000000  0.44821600
   0.00000000  0.00000000  0.55178400
   0.62635700  0.00042000  0.57375200
   0.00042000  0.37322400  0.57375200
   0.37322400  0.62635700  0.57375200
   0.37364300  0.99958000  0.42624800
   0.99958000  0.62677600  0.42624800
   0.62677600  0.37364300  0.42624800

 position of ions in cartesian coordinates  (Angst):
   3.45388488  1.99410134 11.72053566
   6.90778012  3.98820866 11.72405234
   0.00000000  0.00000000 10.50823946
   0.00000000  0.00000000 12.93634854
   4.32818511  0.00251257 13.45137925
   1.29197516  2.23274167 13.45137925
   4.74151509  3.74706174 13.45137925
   6.03347989  5.97979743  9.99320875
   9.06968984  3.74956833  9.99320875
   5.62014991  2.23524826  9.99320875



--------------------------------------------------------------------------------------------------------


 k-point  1 :   0.0000 0.0000 0.0000  plane waves:   26073
 k-point  2 :   0.2000 0.0000 0.0000  plane waves:   26070
 k-point  3 :   0.4000 0.0000 0.0000  plane waves:   26086
 k-point  4 :   0.4000 0.2000 0.0000  plane waves:   26085
 k-point  5 :  -0.4000 0.2000 0.0000  plane waves:   26115

 maximum and minimum number of plane-waves per node :     26115    26070

 maximum number of plane-waves:     26115
 maximum index in each direction: 
   IXMAX=   13   IYMAX=   12   IZMAX=   43
   IXMIN=  -13   IYMIN=  -13   IZMIN=  -43


 serial   3D FFT for wavefunctions
 parallel 3D FFT for charge:
    minimum data exchange during FFTs selected (reduces bandwidth)


 total amount of memory used by VASP MPI-rank0   126930. kBytes
=======================================================================

   base      :      30000. kBytes
   nonlr-proj:       6635. kBytes
   fftplans  :      11247. kBytes
   grid      :      66142. kBytes
   one-center:        311. kBytes
   wavefun   :      12595. kBytes

     INWAV:  cpu time    0.0000: real time    0.0004
 Broyden mixing: mesh for mixing (old mesh)
   NGX = 25   NGY = 25   NGZ = 87
  (NGX  =108   NGY  =108   NGZ  =360)
  gives a total of  54375 points

 initial charge density was supplied:
 charge density of overlapping atoms calculated
 number of electron      60.0000000 magnetization       7.2600000
 keeping initial charge density in first step


--------------------------------------------------------------------------------------------------------


 Maximum index for non-local projection operator         7925
 Maximum index for augmentation-charges         2133 (set IRDMAX)


--------------------------------------------------------------------------------------------------------


 First call to EWALD:  gamma=   0.179
 Maximum number of real-space cells 4x 4x 1
 Maximum number of reciprocal cells 2x 2x 6

    FEWALD:  cpu time    0.0040: real time    0.0015


--------------------------------------- Iteration      1(   1)  ---------------------------------------


vdW kernel read from vdw_kernel.bindat
  0.0000  0.2424  0.5071  0.7962  1.1119  1.4567  1.8333  2.2446  2.6937  3.1842
  3.7199  4.3049  4.9438  5.6415  6.4036  7.2358  8.1446  9.1372 10.2212 11.4050
 12.6979 14.1099 15.6519 17.3360 19.1751 21.1837 23.3773 25.7729 28.3892 31.2465
 34.3669 37.7748 41.4965 45.5611 50.0000

    POTLOK:  cpu time   51.8680: real time   52.1860
    SETDIJ:  cpu time    0.0440: real time    0.0426
     EDDAV:  cpu time   22.1200: real time   22.6383
 BZINTS: Fermi energy:  5.130249; 60.000000 electrons
         Band energy: -27.309045;  BLOECHL correction: -0.038525
       DOS:  cpu time    0.0040: real time    0.0046
    --------------------------------------------
      LOOP:  cpu time   74.0360: real time   74.8715

 eigenvalue-minimisations  :   960
 total energy-change (2. order) : 0.4139533E+03  (-0.1773472E+04)
 number of electron      60.0000000 magnetization       7.2600000
 augmentation part       60.0000000 magnetization       7.2600000

 Free energy of the ion-electron system (eV)
  ---------------------------------------------------
  alpha Z        PSCENC =        25.96315507
  Ewald energy   TEWEN  =      7005.02028753
  -Hartree energ DENC   =     -9758.90200563
  -exchange      EXHF   =         0.00000000
  -V(xc)+E(xc)   XCENC  =        58.34082421
  PAW double counting   =      1632.99934868    -1594.93089756
  entropy T*S    EENTRO =         0.00000000
  eigenvalues    EBANDS =       -27.30904528
  atomic energy  EATOM  =      3072.77161792
  Solvation  Ediel_sol  =         0.00000000
  ---------------------------------------------------
  free energy    TOTEN  =       413.95328492 eV

  energy without entropy =      413.95328492  energy(sigma->0) =      413.95328492


--------------------------------------------------------------------------------------------------------




--------------------------------------- Iteration      1(   2)  ---------------------------------------


     EDDAV:  cpu time   28.0080: real time   28.1420
 BZINTS: Fermi energy: -1.452622; 60.000000 electrons
         Band energy:-409.080460;  BLOECHL correction: -0.074636
       DOS:  cpu time    0.0080: real time    0.0046
    --------------------------------------------
      LOOP:  cpu time   28.0160: real time   28.1466

 eigenvalue-minimisations  :  1216
 total energy-change (2. order) :-0.3817714E+03  (-0.3500007E+03)
 number of electron      60.0000000 magnetization       7.2600000
 augmentation part       60.0000000 magnetization       7.2600000

 Free energy of the ion-electron system (eV)
  ---------------------------------------------------
  alpha Z        PSCENC =        25.96315507
  Ewald energy   TEWEN  =      7005.02028753
  -Hartree energ DENC   =     -9758.90200563
  -exchange      EXHF   =         0.00000000
  -V(xc)+E(xc)   XCENC  =        58.34082421
  PAW double counting   =      1632.99934868    -1594.93089756
  entropy T*S    EENTRO =         0.00000000
  eigenvalues    EBANDS =      -409.08046037
  atomic energy  EATOM  =      3072.77161792
  Solvation  Ediel_sol  =         0.00000000
  ---------------------------------------------------
  free energy    TOTEN  =        32.18186984 eV

  energy without entropy =       32.18186984  energy(sigma->0) =       32.18186984


--------------------------------------------------------------------------------------------------------




--------------------------------------- Iteration      1(   3)  ---------------------------------------


     EDDAV:  cpu time   29.3480: real time   29.4446
 BZINTS: Fermi energy: -2.859957; 60.000000 electrons
         Band energy:-490.941612;  BLOECHL correction: -0.006109
       DOS:  cpu time    0.0040: real time    0.0050
    --------------------------------------------
      LOOP:  cpu time   29.3520: real time   29.4496

 eigenvalue-minimisations  :  1280
 total energy-change (2. order) :-0.8186115E+02  (-0.7950654E+02)
 number of electron      60.0000000 magnetization       7.2600000
 augmentation part       60.0000000 magnetization       7.2600000

 Free energy of the ion-electron system (eV)
  ---------------------------------------------------
  alpha Z        PSCENC =        25.96315507
  Ewald energy   TEWEN  =      7005.02028753
  -Hartree energ DENC   =     -9758.90200563
  -exchange      EXHF   =         0.00000000
  -V(xc)+E(xc)   XCENC  =        58.34082421
  PAW double counting   =      1632.99934868    -1594.93089756
  entropy T*S    EENTRO =         0.00000000
  eigenvalues    EBANDS =      -490.94161186
  atomic energy  EATOM  =      3072.77161792
  Solvation  Ediel_sol  =         0.00000000
  ---------------------------------------------------
  free energy    TOTEN  =       -49.67928166 eV

  energy without entropy =      -49.67928166  energy(sigma->0) =      -49.67928166


--------------------------------------------------------------------------------------------------------




--------------------------------------- Iteration      1(   4)  ---------------------------------------


     EDDAV:  cpu time   29.1320: real time   29.4528
 BZINTS: Fermi energy: -2.910748; 60.000000 electrons
         Band energy:-494.706864;  BLOECHL correction: -0.007334
       DOS:  cpu time    0.0040: real time    0.0052
    --------------------------------------------
      LOOP:  cpu time   29.1360: real time   29.4580

 eigenvalue-minimisations  :  1280
 total energy-change (2. order) :-0.3765252E+01  (-0.3708991E+01)
 number of electron      60.0000000 magnetization       7.2600000
 augmentation part       60.0000000 magnetization       7.2600000

 Free energy of the ion-electron system (eV)
  ---------------------------------------------------
  alpha Z        PSCENC =        25.96315507
  Ewald energy   TEWEN  =      7005.02028753
  -Hartree energ DENC   =     -9758.90200563
  -exchange      EXHF   =         0.00000000
  -V(xc)+E(xc)   XCENC  =        58.34082421
  PAW double counting   =      1632.99934868    -1594.93089756
  entropy T*S    EENTRO =         0.00000000
  eigenvalues    EBANDS =      -494.70686392
  atomic energy  EATOM  =      3072.77161792
  Solvation  Ediel_sol  =         0.00000000
  ---------------------------------------------------
  free energy    TOTEN  =       -53.44453371 eV

  energy without entropy =      -53.44453371  energy(sigma->0) =      -53.44453371


--------------------------------------------------------------------------------------------------------




--------------------------------------- Iteration      1(   5)  ---------------------------------------


     EDDAV:  cpu time   28.8640: real time   29.2447
 BZINTS: Fermi energy: -2.911631; 60.000000 electrons
         Band energy:-494.837112;  BLOECHL correction: -0.006838
       DOS:  cpu time    0.0040: real time    0.0058
    CHARGE:  cpu time    2.0440: real time    2.0536
    MIXING:  cpu time    0.0440: real time    0.0412
    --------------------------------------------
      LOOP:  cpu time   30.9560: real time   31.3454

 eigenvalue-minimisations  :  1280
 total energy-change (2. order) :-0.1302484E+00  (-0.1305677E+00)
 number of electron      60.0000002 magnetization       7.2399631
 augmentation part       -1.8864349 magnetization       4.9135682

 Broyden mixing:
  rms(total) = 0.28621E+01    rms(broyden)= 0.28619E+01
  rms(prec ) = 0.31893E+01
  weight for this iteration     100.00

 Free energy of the ion-electron system (eV)
  ---------------------------------------------------
  alpha Z        PSCENC =        25.96315507
  Ewald energy   TEWEN  =      7005.02028753
  -Hartree energ DENC   =     -9758.90200563
  -exchange      EXHF   =         0.00000000
  -V(xc)+E(xc)   XCENC  =        58.34082421
  PAW double counting   =      1632.99934868    -1594.93089756
  entropy T*S    EENTRO =         0.00000000
  eigenvalues    EBANDS =      -494.83711232
  atomic energy  EATOM  =      3072.77161792
  Solvation  Ediel_sol  =         0.00000000
  ---------------------------------------------------
  free energy    TOTEN  =       -53.57478211 eV

  energy without entropy =      -53.57478211  energy(sigma->0) =      -53.57478211


--------------------------------------------------------------------------------------------------------




--------------------------------------- Iteration      1(   6)  ---------------------------------------


    POTLOK:  cpu time   51.7040: real time   52.2703
    SETDIJ:  cpu time    0.0400: real time    0.0425
     EDDAV:  cpu time   27.9120: real time   28.4337
 BZINTS: Fermi energy: -4.853398; 60.000000 electrons
         Band energy:-688.535384;  BLOECHL correction: -0.019262
       DOS:  cpu time    0.0080: real time    0.0073
    CHARGE:  cpu time    1.7880: real time    2.0349
    MIXING:  cpu time    0.0320: real time    0.0408
    --------------------------------------------
      LOOP:  cpu time   81.4840: real time   82.8295

 eigenvalue-minimisations  :  1232
 total energy-change (2. order) :-0.7138386E+02  (-0.4204495E+02)
 number of electron      60.0000012 magnetization       7.0209534
 augmentation part        9.5897428 magnetization       6.6471559

 Broyden mixing:
  rms(total) = 0.66043E+01    rms(broyden)= 0.66042E+01
  rms(prec ) = 0.71174E+01
  weight for this iteration     100.00

 eigenvalues of (default mixing * dielectric matrix)
  average eigenvalue GAMMA=   0.2394
  0.2394

 Free energy of the ion-electron system (eV)
  ---------------------------------------------------
  alpha Z        PSCENC =        25.96315507
  Ewald energy   TEWEN  =      7005.02028753
  -Hartree energ DENC   =     -9651.62329198
  -exchange      EXHF   =         0.00000000
  -V(xc)+E(xc)   XCENC  =        58.89522572
  PAW double counting   =      1446.66833632    -1394.11859055
  entropy T*S    EENTRO =         0.00000000
  eigenvalues    EBANDS =      -688.53538408
  atomic energy  EATOM  =      3072.77161792
  Solvation  Ediel_sol  =         0.00000000
  ---------------------------------------------------
  free energy    TOTEN  =      -124.95864406 eV

  energy without entropy =     -124.95864406  energy(sigma->0) =     -124.95864406


--------------------------------------------------------------------------------------------------------




--------------------------------------- Iteration      1(   7)  ---------------------------------------


    POTLOK:  cpu time   52.2960: real time   52.4627
    SETDIJ:  cpu time    0.0440: real time    0.0427
     EDDAV:  cpu time   24.7800: real time   25.5200
 BZINTS: Fermi energy: -5.055968; 60.000000 electrons
         Band energy:-531.550185;  BLOECHL correction: -0.015146
       DOS:  cpu time    0.0040: real time    0.0071
    CHARGE:  cpu time    1.9880: real time    2.0090
    MIXING:  cpu time    0.0560: real time    0.0557
    --------------------------------------------
      LOOP:  cpu time   79.1680: real time   80.0971

 eigenvalue-minimisations  :  1088
 total energy-change (2. order) : 0.7694625E+02  (-0.8019668E+01)
 number of electron      60.0000010 magnetization       6.7696653
 augmentation part        6.9624996 magnetization       5.6652441

 Broyden mixing:
  rms(total) = 0.36644E+01    rms(broyden)= 0.36644E+01
  rms(prec ) = 0.40053E+01
  weight for this iteration     100.00

 eigenvalues of (default mixing * dielectric matrix)
  average eigenvalue GAMMA=   0.5312
  0.5312  0.5312

 Free energy of the ion-electron system (eV)
  ---------------------------------------------------
  alpha Z        PSCENC =        25.96315507
  Ewald energy   TEWEN  =      7005.02028753
  -Hartree energ DENC   =     -9716.62603764
  -exchange      EXHF   =         0.00000000
  -V(xc)+E(xc)   XCENC  =        57.14288064
  PAW double counting   =      1564.92699326    -1525.66110635
  entropy T*S    EENTRO =         0.00000000
  eigenvalues    EBANDS =      -531.55018454
  atomic energy  EATOM  =      3072.77161792
  Solvation  Ediel_sol  =         0.00000000
  ---------------------------------------------------
  free energy    TOTEN  =       -48.01239413 eV

  energy without entropy =      -48.01239413  energy(sigma->0) =      -48.01239413


--------------------------------------------------------------------------------------------------------




--------------------------------------- Iteration      1(   8)  ---------------------------------------


    POTLOK:  cpu time   52.3800: real time   52.7638
    SETDIJ:  cpu time    0.0440: real time    0.0430
     EDDAV:  cpu time   30.5240: real time   31.8469
 BZINTS: Fermi energy: -2.991763; 60.000000 electrons
         Band energy:-486.404132;  BLOECHL correction: -0.005252
       DOS:  cpu time    0.0080: real time    0.0050
    CHARGE:  cpu time    2.0240: real time    2.0419
    MIXING:  cpu time    0.0520: real time    0.0504
    --------------------------------------------
      LOOP:  cpu time   85.0320: real time   86.7509

 eigenvalue-minimisations  :  1392
 total energy-change (2. order) : 0.9398742E+00  (-0.1046951E+02)
 number of electron      60.0000003 magnetization       6.5787812
 augmentation part       -1.7512959 magnetization       4.8668590

 Broyden mixing:
  rms(total) = 0.29600E+01    rms(broyden)= 0.29597E+01
  rms(prec ) = 0.32446E+01
  weight for this iteration     100.00

 eigenvalues of (default mixing * dielectric matrix)
  average eigenvalue GAMMA=   0.6156
  1.0668  0.3899  0.3899

 Free energy of the ion-electron system (eV)
  ---------------------------------------------------
  alpha Z        PSCENC =        25.96315507
  Ewald energy   TEWEN  =      7005.02028753
  -Hartree energ DENC   =     -9758.39988289
  -exchange      EXHF   =         0.00000000
  -V(xc)+E(xc)   XCENC  =        57.21238894
  PAW double counting   =      1643.32146162    -1606.55741590
  entropy T*S    EENTRO =         0.00000000
  eigenvalues    EBANDS =      -486.40413221
  atomic energy  EATOM  =      3072.77161792
  Solvation  Ediel_sol  =         0.00000000
  ---------------------------------------------------
  free energy    TOTEN  =       -47.07251993 eV

  energy without entropy =      -47.07251993  energy(sigma->0) =      -47.07251993


--------------------------------------------------------------------------------------------------------




--------------------------------------- Iteration      1(   9)  ---------------------------------------


    POTLOK:  cpu time   51.0960: real time   53.2214
    SETDIJ:  cpu time    0.0400: real time    0.0408
     EDDAV:  cpu time   29.4960: real time   30.7448
 BZINTS: Fermi energy: -4.117919; 60.000000 electrons
         Band energy:-504.958750;  BLOECHL correction: -0.017355
       DOS:  cpu time    0.0040: real time    0.0071
    CHARGE:  cpu time    2.0360: real time    2.0536
    MIXING:  cpu time    0.0440: real time    0.0462
    --------------------------------------------
      LOOP:  cpu time   82.7160: real time   86.1139

 eigenvalue-minimisations  :  1344
 total energy-change (2. order) : 0.6112607E+01  (-0.1803976E+01)
 number of electron      60.0000004 magnetization       6.6938234
 augmentation part        1.4954703 magnetization       3.3188885

 Broyden mixing:
  rms(total) = 0.18063E+01    rms(broyden)= 0.18061E+01
  rms(prec ) = 0.18245E+01
  weight for this iteration     100.00

 eigenvalues of (default mixing * dielectric matrix)
  average eigenvalue GAMMA=   0.4335
  0.7671  0.4081  0.4081  0.1509

 Free energy of the ion-electron system (eV)
  ---------------------------------------------------
  alpha Z        PSCENC =        25.96315507
  Ewald energy   TEWEN  =      7005.02028753
  -Hartree energ DENC   =     -9733.87122371
  -exchange      EXHF   =         0.00000000
  -V(xc)+E(xc)   XCENC  =        56.94876421
  PAW double counting   =      1600.09184718    -1562.92561096
  entropy T*S    EENTRO =         0.00000000
  eigenvalues    EBANDS =      -504.95874968
  atomic energy  EATOM  =      3072.77161792
  Solvation  Ediel_sol  =         0.00000000
  ---------------------------------------------------
  free energy    TOTEN  =       -40.95991244 eV

  energy without entropy =      -40.95991244  energy(sigma->0) =      -40.95991244


--------------------------------------------------------------------------------------------------------




--------------------------------------- Iteration      1(  10)  ---------------------------------------


    POTLOK:  cpu time   51.2680: real time   52.7012
    SETDIJ:  cpu time    0.0440: real time    0.0476
     EDDAV:  cpu time   33.6120: real time   34.0723
 BZINTS: Fermi energy: -4.293708; 60.000000 electrons
         Band energy:-507.456211;  BLOECHL correction: -0.012923
       DOS:  cpu time    0.0040: real time    0.0072
    CHARGE:  cpu time    1.9960: real time    2.0297
    MIXING:  cpu time    0.0440: real time    0.0439
    --------------------------------------------
      LOOP:  cpu time   86.9680: real time   88.9020

 eigenvalue-minimisations  :  1504
 total energy-change (2. order) :-0.1710392E+00  (-0.8697340E-01)
 number of electron      60.0000004 magnetization       6.8141230
 augmentation part        1.8854866 magnetization       3.7856961

 Broyden mixing:
  rms(total) = 0.12892E+01    rms(broyden)= 0.12892E+01
  rms(prec ) = 0.12967E+01
  weight for this iteration     100.00

 eigenvalues of (default mixing * dielectric matrix)
  average eigenvalue GAMMA=   0.5074
  0.8552  0.4698  0.4698  0.3710  0.3710

 Free energy of the ion-electron system (eV)
  ---------------------------------------------------
  alpha Z        PSCENC =        25.96315507
  Ewald energy   TEWEN  =      7005.02028753
  -Hartree energ DENC   =     -9731.94057833
  -exchange      EXHF   =         0.00000000
  -V(xc)+E(xc)   XCENC  =        57.37454334
  PAW double counting   =      1595.20906074    -1558.07282705
  entropy T*S    EENTRO =         0.00000000
  eigenvalues    EBANDS =      -507.45621090
  atomic energy  EATOM  =      3072.77161792
  Solvation  Ediel_sol  =         0.00000000
  ---------------------------------------------------
  free energy    TOTEN  =       -41.13095168 eV

  energy without entropy =      -41.13095168  energy(sigma->0) =      -41.13095168


--------------------------------------------------------------------------------------------------------




--------------------------------------- Iteration      1(  11)  ---------------------------------------


    POTLOK:  cpu time   51.9680: real time   52.1955
    SETDIJ:  cpu time    0.0440: real time    0.0420
     EDDAV:  cpu time   31.9040: real time   32.7620
 BZINTS: Fermi energy: -4.512754; 60.000000 electrons
         Band energy:-512.398529;  BLOECHL correction: -0.010678
       DOS:  cpu time    0.0040: real time    0.0073
    CHARGE:  cpu time    2.0640: real time    2.0653
    MIXING:  cpu time    0.0440: real time    0.0475
    --------------------------------------------
      LOOP:  cpu time   86.0280: real time   87.1196

 eigenvalue-minimisations  :  1440
 total energy-change (2. order) :-0.4337546E+00  (-0.6046381E-01)
 number of electron      60.0000006 magnetization       6.7885833
 augmentation part        2.8012666 magnetization       4.7199912

 Broyden mixing:
  rms(total) = 0.58091E+00    rms(broyden)= 0.58085E+00
  rms(prec ) = 0.62938E+00
  weight for this iteration     100.00

 eigenvalues of (default mixing * dielectric matrix)
  average eigenvalue GAMMA=   0.5375
  0.5948  0.5948  0.8080  0.4054  0.4054  0.4166

 Free energy of the ion-electron system (eV)
  ---------------------------------------------------
  alpha Z        PSCENC =        25.96315507
  Ewald energy   TEWEN  =      7005.02028753
  -Hartree energ DENC   =     -9728.01733219
  -exchange      EXHF   =         0.00000000
  -V(xc)+E(xc)   XCENC  =        58.04567658
  PAW double counting   =      1586.54407073    -1549.49365283
  entropy T*S    EENTRO =         0.00000000
  eigenvalues    EBANDS =      -512.39852907
  atomic energy  EATOM  =      3072.77161792
  Solvation  Ediel_sol  =         0.00000000
  ---------------------------------------------------
  free energy    TOTEN  =       -41.56470625 eV

  energy without entropy =      -41.56470625  energy(sigma->0) =      -41.56470625


--------------------------------------------------------------------------------------------------------




--------------------------------------- Iteration      1(  12)  ---------------------------------------


    POTLOK:  cpu time   51.8760: real time   52.2319
    SETDIJ:  cpu time    0.0440: real time    0.0422
     EDDAV:  cpu time   32.2240: real time   32.4162
 BZINTS: Fermi energy: -4.412832; 60.000000 electrons
         Band energy:-511.685429;  BLOECHL correction: -0.010352
       DOS:  cpu time    0.0040: real time    0.0080
    CHARGE:  cpu time    2.0240: real time    2.0338
    MIXING:  cpu time    0.0440: real time    0.0440
    --------------------------------------------
      LOOP:  cpu time   86.2160: real time   86.7761

 eigenvalue-minimisations  :  1424
 total energy-change (2. order) :-0.5827754E-01  (-0.4136115E-01)
 number of electron      60.0000004 magnetization       6.8849314
 augmentation part        2.1985033 magnetization       4.0073486

 Broyden mixing:
  rms(total) = 0.70514E+00    rms(broyden)= 0.70511E+00
  rms(prec ) = 0.70836E+00
  weight for this iteration     100.00

 eigenvalues of (default mixing * dielectric matrix)
  average eigenvalue GAMMA=   0.6259
  0.7693  0.7693  0.7873  0.6410  0.6410  0.3867  0.3867

 Free energy of the ion-electron system (eV)
  ---------------------------------------------------
  alpha Z        PSCENC =        25.96315507
  Ewald energy   TEWEN  =      7005.02028753
  -Hartree energ DENC   =     -9728.97644731
  -exchange      EXHF   =         0.00000000
  -V(xc)+E(xc)   XCENC  =        58.45547480
  PAW double counting   =      1587.97382766    -1551.14547036
  entropy T*S    EENTRO =         0.00000000
  eigenvalues    EBANDS =      -511.68542910
  atomic energy  EATOM  =      3072.77161792
  Solvation  Ediel_sol  =         0.00000000
  ---------------------------------------------------
  free energy    TOTEN  =       -41.62298379 eV

  energy without entropy =      -41.62298379  energy(sigma->0) =      -41.62298379


--------------------------------------------------------------------------------------------------------




--------------------------------------- Iteration      1(  13)  ---------------------------------------


    POTLOK:  cpu time   50.7880: real time   50.9442
    SETDIJ:  cpu time    0.0440: real time    0.0426
     EDDAV:  cpu time   33.9480: real time   34.1774
 BZINTS: Fermi energy: -4.258488; 60.000000 electrons
         Band energy:-510.419596;  BLOECHL correction: -0.021046
       DOS:  cpu time    0.0040: real time    0.0051
    CHARGE:  cpu time    1.9880: real time    2.0222
    MIXING:  cpu time    0.0640: real time    0.0622
    --------------------------------------------
      LOOP:  cpu time   86.8360: real time   87.2538

 eigenvalue-minimisations  :  1536
 total energy-change (2. order) :-0.3307568E+00  (-0.3101861E-01)
 number of electron      60.0000004 magnetization       7.0132657
 augmentation part        1.6282735 magnetization       3.7242149

 Broyden mixing:
  rms(total) = 0.89690E+00    rms(broyden)= 0.89688E+00
  rms(prec ) = 0.91666E+00
  weight for this iteration     100.00

 eigenvalues of (default mixing * dielectric matrix)
  average eigenvalue GAMMA=   0.6878
  1.0448  1.0448  0.9098  0.5839  0.5839  0.3878  0.3878  0.5597

 Free energy of the ion-electron system (eV)
  ---------------------------------------------------
  alpha Z        PSCENC =        25.96315507
  Ewald energy   TEWEN  =      7005.02028753
  -Hartree energ DENC   =     -9730.82143333
  -exchange      EXHF   =         0.00000000
  -V(xc)+E(xc)   XCENC  =        59.18702180
  PAW double counting   =      1590.61413317    -1554.26892657
  entropy T*S    EENTRO =         0.00000000
  eigenvalues    EBANDS =      -510.41959617
  atomic energy  EATOM  =      3072.77161792
  Solvation  Ediel_sol  =         0.00000000
  ---------------------------------------------------
  free energy    TOTEN  =       -41.95374059 eV

  energy without entropy =      -41.95374059  energy(sigma->0) =      -41.95374059


--------------------------------------------------------------------------------------------------------




--------------------------------------- Iteration      1(  14)  ---------------------------------------


    POTLOK:  cpu time   50.8240: real time   51.0587
    SETDIJ:  cpu time    0.0680: real time    0.0681
     EDDAV:  cpu time   32.7880: real time   33.0025
 BZINTS: Fermi energy: -4.235277; 60.000000 electrons
         Band energy:-510.557071;  BLOECHL correction: -0.011942
       DOS:  cpu time    0.0040: real time    0.0076
    CHARGE:  cpu time    2.0200: real time    2.0181
    MIXING:  cpu time    0.0440: real time    0.0454
    --------------------------------------------
      LOOP:  cpu time   85.7480: real time   86.2004

 eigenvalue-minimisations  :  1472
 total energy-change (2. order) :-0.1468360E+00  (-0.6048236E-02)
 number of electron      60.0000004 magnetization       7.1008785
 augmentation part        1.4291342 magnetization       3.4531200

 Broyden mixing:
  rms(total) = 0.95654E+00    rms(broyden)= 0.95652E+00
  rms(prec ) = 0.98928E+00
  weight for this iteration     100.00

 eigenvalues of (default mixing * dielectric matrix)
  average eigenvalue GAMMA=   0.7455
  1.2942  1.2942  1.1026  0.5906  0.5906  0.3892  0.3892  0.5294  0.5294

 Free energy of the ion-electron system (eV)
  ---------------------------------------------------
  alpha Z        PSCENC =        25.96315507
  Ewald energy   TEWEN  =      7005.02028753
  -Hartree energ DENC   =     -9731.00685130
  -exchange      EXHF   =         0.00000000
  -V(xc)+E(xc)   XCENC  =        59.75228591
  PAW double counting   =      1590.40275077    -1554.44675146
  entropy T*S    EENTRO =         0.00000000
  eigenvalues    EBANDS =      -510.55707105
  atomic energy  EATOM  =      3072.77161792
  Solvation  Ediel_sol  =         0.00000000
  ---------------------------------------------------
  free energy    TOTEN  =       -42.10057662 eV

  energy without entropy =      -42.10057662  energy(sigma->0) =      -42.10057662


--------------------------------------------------------------------------------------------------------




--------------------------------------- Iteration      1(  15)  ---------------------------------------


    POTLOK:  cpu time   50.7800: real time   51.0088
    SETDIJ:  cpu time    0.0440: real time    0.0433
     EDDAV:  cpu time   32.0240: real time   32.6308
 BZINTS: Fermi energy: -4.246697; 60.000000 electrons
         Band energy:-511.029890;  BLOECHL correction: -0.012848
       DOS:  cpu time    0.0080: real time    0.0052
    CHARGE:  cpu time    1.9920: real time    2.0076
    MIXING:  cpu time    0.0520: real time    0.0515
    --------------------------------------------
      LOOP:  cpu time   84.9000: real time   85.7472

 eigenvalue-minimisations  :  1456
 total energy-change (2. order) : 0.2521274E-01  (-0.2032201E-02)
 number of electron      60.0000004 magnetization       7.3220351
 augmentation part        1.4828665 magnetization       3.6777155

 Broyden mixing:
  rms(total) = 0.86041E+00    rms(broyden)= 0.86041E+00
  rms(prec ) = 0.89043E+00
  weight for this iteration     100.00

 eigenvalues of (default mixing * dielectric matrix)
  average eigenvalue GAMMA=   0.8312
  1.6422  1.6422  1.0431  0.6189  0.6189  0.3887  0.3887  0.6235  0.6727  0.6727

 Free energy of the ion-electron system (eV)
  ---------------------------------------------------
  alpha Z        PSCENC =        25.96315507
  Ewald energy   TEWEN  =      7005.02028753
  -Hartree energ DENC   =     -9730.54849055
  -exchange      EXHF   =         0.00000000
  -V(xc)+E(xc)   XCENC  =        59.94088262
  PAW double counting   =      1589.22584273    -1553.41876876
  entropy T*S    EENTRO =         0.00000000
  eigenvalues    EBANDS =      -511.02989044
  atomic energy  EATOM  =      3072.77161792
  Solvation  Ediel_sol  =         0.00000000
  ---------------------------------------------------
  free energy    TOTEN  =       -42.07536389 eV

  energy without entropy =      -42.07536389  energy(sigma->0) =      -42.07536389


--------------------------------------------------------------------------------------------------------




--------------------------------------- Iteration      1(  16)  ---------------------------------------


    POTLOK:  cpu time   50.5600: real time   50.8459
    SETDIJ:  cpu time    0.0760: real time    0.0745
     EDDAV:  cpu time   28.8400: real time   29.0505
 BZINTS: Fermi energy: -4.242684; 60.000000 electrons
         Band energy:-511.070605;  BLOECHL correction: -0.004345
       DOS:  cpu time    0.0040: real time    0.0065
    CHARGE:  cpu time    2.0280: real time    2.0509
    MIXING:  cpu time    0.0480: real time    0.0481
    --------------------------------------------
      LOOP:  cpu time   81.5560: real time   82.0765

 eigenvalue-minimisations  :  1264
 total energy-change (2. order) :-0.7140269E-01  (-0.1581269E-02)
 number of electron      60.0000004 magnetization       7.6221116
 augmentation part        1.3985323 magnetization       3.6899280

 Broyden mixing:
  rms(total) = 0.93329E+00    rms(broyden)= 0.93329E+00
  rms(prec ) = 0.96824E+00
  weight for this iteration     100.00

 eigenvalues of (default mixing * dielectric matrix)
  average eigenvalue GAMMA=   0.9764
  2.4405  2.4405  0.9619  0.9619  0.6235  0.6235  0.8145  0.3887  0.3887  0.5482
  0.5482

 Free energy of the ion-electron system (eV)
  ---------------------------------------------------
  alpha Z        PSCENC =        25.96315507
  Ewald energy   TEWEN  =      7005.02028753
  -Hartree energ DENC   =     -9730.46294717
  -exchange      EXHF   =         0.00000000
  -V(xc)+E(xc)   XCENC  =        60.10015472
  PAW double counting   =      1589.08999537    -1553.55842498
  entropy T*S    EENTRO =         0.00000000
  eigenvalues    EBANDS =      -511.07060503
  atomic energy  EATOM  =      3072.77161792
  Solvation  Ediel_sol  =         0.00000000
  ---------------------------------------------------
  free energy    TOTEN  =       -42.14676657 eV

  energy without entropy =      -42.14676657  energy(sigma->0) =      -42.14676657


--------------------------------------------------------------------------------------------------------




--------------------------------------- Iteration      1(  17)  ---------------------------------------


    POTLOK:  cpu time   52.0280: real time   52.5646
    SETDIJ:  cpu time    0.0680: real time    0.0684
     EDDAV:  cpu time   30.7520: real time   31.9685
 BZINTS: Fermi energy: -4.267695; 59.963177 electrons
         Band energy:-512.181509;  BLOECHL correction: -0.001654
       DOS:  cpu time    0.0040: real time    0.0061
    CHARGE:  cpu time    2.0040: real time    2.0061
    MIXING:  cpu time    0.0480: real time    0.0514
    --------------------------------------------
      LOOP:  cpu time   84.9040: real time   86.6651

 eigenvalue-minimisations  :  1408
 total energy-change (2. order) : 0.2092383E+00  (-0.3688700E-02)
 number of electron      59.9631777 magnetization       7.9208754
 augmentation part        1.4684384 magnetization       3.8894680

 Broyden mixing:
  rms(total) = 0.82090E+00    rms(broyden)= 0.82090E+00
  rms(prec ) = 0.85191E+00
  weight for this iteration     100.00

 eigenvalues of (default mixing * dielectric matrix)
  average eigenvalue GAMMA=   1.0617
  2.8207  2.8207  1.1188  1.1188  1.0515  0.6214  0.6214  0.3888  0.3888  0.6678
  0.5608  0.5608

 Free energy of the ion-electron system (eV)
  ---------------------------------------------------
  alpha Z        PSCENC =        25.96315507
  Ewald energy   TEWEN  =      7005.02028753
  -Hartree energ DENC   =     -9729.13943850
  -exchange      EXHF   =         0.00000000
  -V(xc)+E(xc)   XCENC  =        60.33724462
  PAW double counting   =      1586.57242659    -1551.28131260
  entropy T*S    EENTRO =         0.00000000
  eigenvalues    EBANDS =      -512.18150891
  atomic energy  EATOM  =      3072.77161792
  Solvation  Ediel_sol  =         0.00000000
  ---------------------------------------------------
  free energy    TOTEN  =       -41.93752828 eV

  energy without entropy =      -41.93752828  energy(sigma->0) =      -41.93752828


--------------------------------------------------------------------------------------------------------




--------------------------------------- Iteration      1(  18)  ---------------------------------------


    POTLOK:  cpu time   51.6000: real time   51.9641
    SETDIJ:  cpu time    0.0440: real time    0.0415
     EDDAV:  cpu time   28.5440: real time   28.7594
 BZINTS: Fermi energy: -4.332177; 60.000000 electrons
         Band energy:-515.610529;  BLOECHL correction: -0.006450
       DOS:  cpu time    0.0040: real time    0.0076
    CHARGE:  cpu time    2.0240: real time    2.0289
    MIXING:  cpu time    0.0480: real time    0.0499
    --------------------------------------------
      LOOP:  cpu time   82.2640: real time   82.8514

 eigenvalue-minimisations  :  1248
 total energy-change (2. order) :-0.1169007E+00  (-0.7625657E-02)
 number of electron      60.0000004 magnetization       8.3441997
 augmentation part        1.6390028 magnetization       4.3827702

 Broyden mixing:
  rms(total) = 0.59682E+00    rms(broyden)= 0.59681E+00
  rms(prec ) = 0.61852E+00
  weight for this iteration     100.00

 eigenvalues of (default mixing * dielectric matrix)
  average eigenvalue GAMMA=   1.1369
  3.1655  3.1655  1.6504  1.2064  1.2064  0.6207  0.6207  0.3888  0.3888  0.5922
  0.5922  0.5911  0.5911

 Free energy of the ion-electron system (eV)
  ---------------------------------------------------
  alpha Z        PSCENC =        25.96315507
  Ewald energy   TEWEN  =      7005.02028753
  -Hartree energ DENC   =     -9725.95879316
  -exchange      EXHF   =         0.00000000
  -V(xc)+E(xc)   XCENC  =        60.49998689
  PAW double counting   =      1582.13893382    -1546.87908852
  entropy T*S    EENTRO =         0.00000000
  eigenvalues    EBANDS =      -515.61052854
  atomic energy  EATOM  =      3072.77161792
  Solvation  Ediel_sol  =         0.00000000
  ---------------------------------------------------
  free energy    TOTEN  =       -42.05442900 eV

  energy without entropy =      -42.05442900  energy(sigma->0) =      -42.05442900


--------------------------------------------------------------------------------------------------------




--------------------------------------- Iteration      1(  19)  ---------------------------------------


    POTLOK:  cpu time   51.8360: real time   52.0142
    SETDIJ:  cpu time    0.0440: real time    0.0454
     EDDAV:  cpu time   26.8560: real time   27.0558
 BZINTS: Fermi energy: -4.407158; 60.000000 electrons
         Band energy:-519.027158;  BLOECHL correction: -0.018711
       DOS:  cpu time    0.0040: real time    0.0072
    CHARGE:  cpu time    2.0240: real time    2.0298
    MIXING:  cpu time    0.0520: real time    0.0534
    --------------------------------------------
      LOOP:  cpu time   80.8160: real time   81.2057

 eigenvalue-minimisations  :  1168
 total energy-change (2. order) : 0.2501889E-01  (-0.1404351E-01)
 number of electron      60.0000004 magnetization       8.2653941
 augmentation part        1.9472296 magnetization       4.5879371

 Broyden mixing:
  rms(total) = 0.22785E+00    rms(broyden)= 0.22783E+00
  rms(prec ) = 0.23336E+00
  weight for this iteration     100.00

 eigenvalues of (default mixing * dielectric matrix)
  average eigenvalue GAMMA=   1.1154
  3.2442  3.2442  1.5451  1.2479  1.2479  0.6205  0.6205  0.3888  0.3888  0.6691
  0.6691  0.5726  0.5726  0.5845

 Free energy of the ion-electron system (eV)
  ---------------------------------------------------
  alpha Z        PSCENC =        25.96315507
  Ewald energy   TEWEN  =      7005.02028753
  -Hartree energ DENC   =     -9722.74887945
  -exchange      EXHF   =         0.00000000
  -V(xc)+E(xc)   XCENC  =        60.80488164
  PAW double counting   =      1578.31620383    -1543.12951828
  entropy T*S    EENTRO =         0.00000000
  eigenvalues    EBANDS =      -519.02715836
  atomic energy  EATOM  =      3072.77161792
  Solvation  Ediel_sol  =         0.00000000
  ---------------------------------------------------
  free energy    TOTEN  =       -42.02941011 eV

  energy without entropy =      -42.02941011  energy(sigma->0) =      -42.02941011


--------------------------------------------------------------------------------------------------------




--------------------------------------- Iteration      1(  20)  ---------------------------------------


    POTLOK:  cpu time   52.2880: real time   52.5814
    SETDIJ:  cpu time    0.0640: real time    0.0646
     EDDAV:  cpu time   29.8320: real time   30.0267
 BZINTS: Fermi energy: -4.371612; 60.000000 electrons
         Band energy:-517.712625;  BLOECHL correction: -0.013904
       DOS:  cpu time    0.0080: real time    0.0068
    CHARGE:  cpu time    2.0520: real time    2.0623
    MIXING:  cpu time    0.0520: real time    0.0549
    --------------------------------------------
      LOOP:  cpu time   84.3000: real time   84.7966

 eigenvalue-minimisations  :  1312
 total energy-change (2. order) :-0.2357357E-01  (-0.4554214E-02)
 number of electron      60.0000004 magnetization       8.7792120
 augmentation part        1.7896198 magnetization       4.9536265

 Broyden mixing:
  rms(total) = 0.40542E+00    rms(broyden)= 0.40542E+00
  rms(prec ) = 0.41957E+00
  weight for this iteration     100.00

 eigenvalues of (default mixing * dielectric matrix)
  average eigenvalue GAMMA=   1.2289
  3.6442  3.6442  1.8484  1.8484  1.1263  1.1263  0.6208  0.6208  0.3888  0.3888
  0.7127  0.7127  0.6153  0.6153  0.5199

 Free energy of the ion-electron system (eV)
  ---------------------------------------------------
  alpha Z        PSCENC =        25.96315507
  Ewald energy   TEWEN  =      7005.02028753
  -Hartree energ DENC   =     -9724.05116339
  -exchange      EXHF   =         0.00000000
  -V(xc)+E(xc)   XCENC  =        60.72385926
  PAW double counting   =      1581.14010851    -1545.90822338
  entropy T*S    EENTRO =         0.00000000
  eigenvalues    EBANDS =      -517.71262519
  atomic energy  EATOM  =      3072.77161792
  Solvation  Ediel_sol  =         0.00000000
  ---------------------------------------------------
  free energy    TOTEN  =       -42.05298368 eV

  energy without entropy =      -42.05298368  energy(sigma->0) =      -42.05298368


--------------------------------------------------------------------------------------------------------




--------------------------------------- Iteration      1(  21)  ---------------------------------------


    POTLOK:  cpu time   51.8800: real time   52.0943
    SETDIJ:  cpu time    0.0440: real time    0.0432
     EDDAV:  cpu time   24.8080: real time   24.9961
 BZINTS: Fermi energy: -4.441804; 60.000000 electrons
         Band energy:-521.091522;  BLOECHL correction: -0.020206
       DOS:  cpu time    0.0040: real time    0.0071
    CHARGE:  cpu time    2.0000: real time    2.0286
    MIXING:  cpu time    0.0600: real time    0.0577
    --------------------------------------------
      LOOP:  cpu time   78.7920: real time   79.2271

 eigenvalue-minimisations  :  1072
 total energy-change (2. order) : 0.5024691E-02  (-0.7692420E-02)
 number of electron      60.0000004 magnetization       8.9476526
 augmentation part        2.0486648 magnetization       5.2777926

 Broyden mixing:
  rms(total) = 0.70330E-01    rms(broyden)= 0.70295E-01
  rms(prec ) = 0.71564E-01
  weight for this iteration     100.00

 eigenvalues of (default mixing * dielectric matrix)
  average eigenvalue GAMMA=   1.2698
  3.5897  3.1833  3.1833  2.1283  1.1229  1.1229  0.6208  0.6208  0.9382  0.3888
  0.3888  0.6499  0.6499  0.6040  0.6040  0.5210

 Free energy of the ion-electron system (eV)
  ---------------------------------------------------
  alpha Z        PSCENC =        25.96315507
  Ewald energy   TEWEN  =      7005.02028753
  -Hartree energ DENC   =     -9721.00193198
  -exchange      EXHF   =         0.00000000
  -V(xc)+E(xc)   XCENC  =        61.10755192
  PAW double counting   =      1578.48490887    -1543.30202631
  entropy T*S    EENTRO =         0.00000000
  eigenvalues    EBANDS =      -521.09152200
  atomic energy  EATOM  =      3072.77161792
  Solvation  Ediel_sol  =         0.00000000
  ---------------------------------------------------
  free energy    TOTEN  =       -42.04795898 eV

  energy without entropy =      -42.04795898  energy(sigma->0) =      -42.04795898


--------------------------------------------------------------------------------------------------------




--------------------------------------- Iteration      1(  22)  ---------------------------------------


    POTLOK:  cpu time   52.2360: real time   52.4928
    SETDIJ:  cpu time    0.0440: real time    0.0427
     EDDAV:  cpu time   33.8640: real time   34.2620
 BZINTS: Fermi energy: -4.453166; 60.000000 electrons
         Band energy:-521.653478;  BLOECHL correction: -0.020778
       DOS:  cpu time    0.0080: real time    0.0070
    CHARGE:  cpu time    1.8920: real time    2.0217
    MIXING:  cpu time    0.0560: real time    0.0554
    --------------------------------------------
      LOOP:  cpu time   88.1000: real time   88.8816

 eigenvalue-minimisations  :  1520
 total energy-change (2. order) :-0.4747222E-02  (-0.1672282E-02)
 number of electron      60.0000004 magnetization       9.0006104
 augmentation part        2.1012003 magnetization       5.3280517

 Broyden mixing:
  rms(total) = 0.36900E-01    rms(broyden)= 0.36890E-01
  rms(prec ) = 0.37626E-01
  weight for this iteration     100.00

 eigenvalues of (default mixing * dielectric matrix)
  average eigenvalue GAMMA=   1.2910
  4.9563  2.7520  2.6469  2.6469  1.1415  1.1415  0.6208  0.6208  0.3888  0.3888
  0.8130  0.8130  0.6445  0.6445  0.6059  0.6059  0.5157

 Free energy of the ion-electron system (eV)
  ---------------------------------------------------
  alpha Z        PSCENC =        25.96315507
  Ewald energy   TEWEN  =      7005.02028753
  -Hartree energ DENC   =     -9720.46785643
  -exchange      EXHF   =         0.00000000
  -V(xc)+E(xc)   XCENC  =        61.14239377
  PAW double counting   =      1578.42295902    -1543.25178519
  entropy T*S    EENTRO =         0.00000000
  eigenvalues    EBANDS =      -521.65347790
  atomic energy  EATOM  =      3072.77161792
  Solvation  Ediel_sol  =         0.00000000
  ---------------------------------------------------
  free energy    TOTEN  =       -42.05270621 eV

  energy without entropy =      -42.05270621  energy(sigma->0) =      -42.05270621


--------------------------------------------------------------------------------------------------------




--------------------------------------- Iteration      1(  23)  ---------------------------------------


    POTLOK:  cpu time   50.7120: real time   51.1334
    SETDIJ:  cpu time    0.0640: real time    0.0622
     EDDAV:  cpu time   27.0240: real time   27.3522
 BZINTS: Fermi energy: -4.452995; 60.000000 electrons
         Band energy:-521.750884;  BLOECHL correction: -0.019348
       DOS:  cpu time    0.0040: real time    0.0074
    CHARGE:  cpu time    2.0120: real time    2.0291
    MIXING:  cpu time    0.0840: real time    0.0833
    --------------------------------------------
      LOOP:  cpu time   79.9000: real time   80.6677

 eigenvalue-minimisations  :  1200
 total energy-change (2. order) : 0.7623242E-03  (-0.9618821E-04)
 number of electron      60.0000004 magnetization       9.0734874
 augmentation part        2.0656761 magnetization       5.3294279

 Broyden mixing:
  rms(total) = 0.55569E-01    rms(broyden)= 0.55566E-01
  rms(prec ) = 0.56145E-01
  weight for this iteration     100.00

 eigenvalues of (default mixing * dielectric matrix)
  average eigenvalue GAMMA=   1.3087
  5.8939  2.6869  2.5643  2.5643  1.1437  1.1437  0.6208  0.6208  0.9436  0.9436
  0.3888  0.3888  0.6107  0.6107  0.6499  0.6499  0.5660  0.5660

 Free energy of the ion-electron system (eV)
  ---------------------------------------------------
  alpha Z        PSCENC =        25.96315507
  Ewald energy   TEWEN  =      7005.02028753
  -Hartree energ DENC   =     -9720.39439428
  -exchange      EXHF   =         0.00000000
  -V(xc)+E(xc)   XCENC  =        61.18441761
  PAW double counting   =      1578.40620163    -1543.25234544
  entropy T*S    EENTRO =         0.00000000
  eigenvalues    EBANDS =      -521.75088391
  atomic energy  EATOM  =      3072.77161792
  Solvation  Ediel_sol  =         0.00000000
  ---------------------------------------------------
  free energy    TOTEN  =       -42.05194388 eV

  energy without entropy =      -42.05194388  energy(sigma->0) =      -42.05194388


--------------------------------------------------------------------------------------------------------




--------------------------------------- Iteration      1(  24)  ---------------------------------------


    POTLOK:  cpu time   50.9480: real time   51.1261
    SETDIJ:  cpu time    0.0400: real time    0.0422
     EDDAV:  cpu time   25.4200: real time   25.6542
 BZINTS: Fermi energy: -4.458011; 60.000000 electrons
         Band energy:-522.050511;  BLOECHL correction: -0.018804
       DOS:  cpu time    0.0040: real time    0.0047
    --------------------------------------------
      LOOP:  cpu time   76.4120: real time   76.8272

 eigenvalue-minimisations  :  1120
 total energy-change (2. order) :-0.6495975E-04  (-0.6455975E-04)
 number of electron      60.0000004 magnetization       9.0734874
 augmentation part        2.0656761 magnetization       5.3294279

 Free energy of the ion-electron system (eV)
  ---------------------------------------------------
  alpha Z        PSCENC =        25.96315507
  Ewald energy   TEWEN  =      7005.02028753
  -Hartree energ DENC   =     -9720.11296059
  -exchange      EXHF   =         0.00000000
  -V(xc)+E(xc)   XCENC  =        61.22844331
[...]
     34      -1.2521      0.00000
     35      -1.0358      0.00000
     36      -0.7630      0.00000
     37      -0.4224      0.00000
     38       1.1079      0.00000
     39       1.5066      0.00000
     40       1.6526      0.00000
     41       1.9392      0.00000
     42       2.2480      0.00000
     43       2.4118      0.00000
     44       2.4845      0.00000
     45       2.8568      0.00000
     46       3.2149      0.00000
     47       3.4707      0.00000
     48       3.6807      0.00000

 k-point     5 :      -0.4000    0.2000    0.0000
  band No.  band energies     occupation 
      1     -16.7795      1.00000
      2     -16.5561      1.00000
      3     -16.0834      1.00000
      4     -15.9361      1.00000
      5     -15.6982      1.00000
      6     -15.5326      1.00000
      7     -11.5850      1.00000
      8     -10.2538      1.00000
      9      -8.3573      1.00000
     10      -7.8005      1.00000
     11      -7.7724      1.00000
     12      -7.2585      1.00000
     13      -6.9021      1.00000
     14      -6.7886      1.00000
     15      -6.5982      1.00000
     16      -6.1973      1.00000
     17      -6.1225      1.00000
     18      -6.1195      1.00000
     19      -5.9013      1.00000
     20      -5.6483      1.00000
     21      -5.5643      1.00000
     22      -4.7200      1.00000
     23      -4.6416      1.00000
     24      -4.4019      1.00000
     25      -4.3723      1.00000
     26      -3.3663      1.00000
     27      -3.2570      1.00000
     28      -3.0981      1.00000
     29      -3.0546      1.00000
     30      -2.6525      0.00000
     31      -2.6434      0.00000
     32      -1.9160      0.00000
     33      -1.4554      0.00000
     34      -1.3021      0.00000
     35      -1.1650      0.00000
     36      -1.0129      0.00000
     37      -0.3024      0.00000
     38       0.9517      0.00000
     39       1.0040      0.00000
     40       1.6259      0.00000
     41       1.6953      0.00000
     42       1.8311      0.00000
     43       2.8716      0.00000
     44       2.9357      0.00000
     45       3.0486      0.00000
     46       3.0877      0.00000
     47       3.6669      0.00000
     48       3.7082      0.00000


--------------------------------------------------------------------------------------------------------


 soft charge-density along one line, spin component           1
         0         1         2         3         4         5         6         7         8         9
 total charge-density along one line

 soft charge-density along one line, spin component           2
         0         1         2         3         4         5         6         7         8         9
 total charge-density along one line

 pseudopotential strength for first ion, spin component:           1
-10.665  -0.090  -0.000   0.000  -0.000   0.816   0.027   0.000
 -0.090 -10.924   0.000  -0.000   0.000   0.027   0.893  -0.000
 -0.000   0.000 -11.370   0.000   0.000   0.000  -0.000   1.021
  0.000  -0.000   0.000 -10.924   0.090  -0.000   0.000  -0.000
 -0.000   0.000   0.000   0.090 -10.665   0.000  -0.000  -0.000
  0.816   0.027   0.000  -0.000   0.000   0.500  -0.009  -0.000
  0.027   0.893  -0.000   0.000  -0.000  -0.009   0.477   0.000
  0.000  -0.000   1.021  -0.000  -0.000  -0.000   0.000   0.441
 -0.000   0.000  -0.000   0.893  -0.027   0.000  -0.000   0.000
  0.000  -0.000  -0.000  -0.027   0.816  -0.000   0.000   0.000
  0.000  -0.000   0.083  -0.000   0.000  -0.000  -0.000  -0.020
 -0.000   0.000  -0.008   0.000  -0.000   0.000  -0.000   0.002
  0.000   0.000   0.000  -0.000   0.000  -0.000  -0.000  -0.000
 -0.000  -0.000   0.000  -0.000  -0.000  -0.000   0.000  -0.000
  0.000  -0.000   0.000   0.000  -0.000   0.001  -0.000  -0.000
 -0.000  -0.000  -0.000   0.000  -0.001   0.000   0.000   0.000
  0.000   0.000  -0.000   0.000   0.000  -0.000  -0.000   0.000
 -0.001   0.000  -0.000  -0.000   0.000   0.000  -0.000   0.000
 pseudopotential strength for first ion, spin component:           2
-10.111  -0.052  -0.000  -0.000  -0.000   0.650   0.016   0.000
 -0.052 -10.422   0.000  -0.000  -0.000   0.016   0.737  -0.000
 -0.000   0.000 -10.058   0.000   0.000   0.000  -0.000   0.637
 -0.000  -0.000   0.000 -10.422   0.052   0.000   0.000  -0.000
 -0.000  -0.000   0.000   0.052 -10.111   0.000   0.000  -0.000
  0.650   0.016   0.000   0.000   0.000   0.550  -0.006  -0.000
  0.016   0.737  -0.000   0.000   0.000  -0.006   0.525   0.000
  0.000  -0.000   0.637  -0.000  -0.000  -0.000   0.000   0.551
  0.000   0.000  -0.000   0.737  -0.016  -0.000  -0.000   0.000
  0.000   0.000  -0.000  -0.016   0.650  -0.000  -0.000   0.000
  0.000  -0.000   0.008  -0.000   0.000  -0.000  -0.000  -0.006
 -0.000   0.000  -0.002   0.000  -0.000   0.000  -0.000   0.001
  0.000   0.000   0.000  -0.000   0.002   0.000  -0.000  -0.000
 -0.000  -0.000   0.000  -0.000  -0.000  -0.000   0.000  -0.000
  0.002  -0.000   0.000   0.000  -0.000   0.000  -0.000  -0.000
 -0.000  -0.000  -0.000   0.000  -0.001   0.000   0.000   0.000
  0.000   0.000  -0.000   0.000   0.000  -0.000  -0.000   0.000
 -0.001   0.000  -0.000  -0.000   0.000   0.000  -0.000   0.000
 total augmentation occupancy for first ion, spin component:           1
  1.528  -0.361   0.000  -0.000  -0.000   0.119   0.250   0.000   0.000   0.000   0.000   0.000   0.000  -0.000   0.004  -0.000
 -0.361   1.371  -0.000  -0.000  -0.000   0.206   0.257   0.000   0.000   0.000  -0.000  -0.000   0.000   0.000   0.012  -0.000
  0.000  -0.000   1.209  -0.000  -0.000   0.000   0.000  -0.065   0.000  -0.000   0.021   0.048  -0.000  -0.000   0.000   0.000
 -0.000  -0.000  -0.000   1.371   0.361   0.000  -0.000   0.000   0.257  -0.206  -0.000  -0.000  -0.012   0.000   0.000   0.000
 -0.000  -0.000  -0.000   0.361   1.528  -0.000   0.000  -0.000  -0.250   0.119  -0.000  -0.000   0.004   0.000  -0.000  -0.001
  0.119   0.206   0.000   0.000  -0.000   0.153   0.073   0.000   0.000  -0.000   0.000  -0.000   0.000  -0.000   0.033  -0.000
  0.250   0.257   0.000  -0.000   0.000   0.073   0.243   0.000  -0.000   0.000   0.000   0.000   0.000   0.000  -0.008  -0.000
  0.000   0.000  -0.065   0.000  -0.000   0.000   0.000   0.146   0.000  -0.000   0.042  -0.024  -0.000  -0.000   0.000   0.000
  0.000   0.000   0.000   0.257  -0.250   0.000  -0.000   0.000   0.243  -0.073  -0.000   0.000   0.008  -0.000   0.000  -0.001
  0.000   0.000  -0.000  -0.206   0.119  -0.000   0.000  -0.000  -0.073   0.153  -0.000   0.000   0.033   0.000  -0.000  -0.004
  0.000  -0.000   0.021   0.000  -0.000   0.000   0.000   0.042  -0.000  -0.000   1.116  -0.300  -0.000   0.000   0.000   0.000
  0.000  -0.000   0.048  -0.000  -0.000  -0.000   0.000  -0.024   0.000   0.000  -0.300   0.149  -0.000  -0.000   0.000   0.000
  0.000   0.000  -0.000  -0.012   0.004   0.000   0.000  -0.000   0.008   0.033  -0.000   0.000   0.211  -0.000  -0.000  -0.015
 -0.000  -0.000  -0.000   0.000   0.000  -0.000   0.000  -0.000  -0.000   0.000   0.000  -0.000  -0.000   0.221  -0.000   0.000
  0.004   0.012   0.000   0.000  -0.000   0.033  -0.008   0.000   0.000  -0.000   0.000   0.000  -0.000  -0.000   0.211  -0.000
 -0.000  -0.000   0.000   0.000  -0.001  -0.000  -0.000   0.000  -0.001  -0.004  -0.000   0.000  -0.015   0.000  -0.000   0.002
  0.000   0.000   0.000   0.000  -0.000   0.000  -0.000   0.000  -0.000  -0.000  -0.000   0.000   0.000  -0.016   0.000  -0.000
 -0.001  -0.000  -0.000  -0.000   0.000  -0.004   0.001  -0.000  -0.000   0.000   0.000  -0.000   0.000   0.000  -0.015  -0.000
 total augmentation occupancy for first ion, spin component:           2
  0.090   0.023   0.000  -0.000  -0.000  -0.051   0.005  -0.000   0.000  -0.000  -0.000   0.000  -0.000   0.000   0.006   0.000
  0.023   0.050   0.000  -0.000  -0.000   0.013  -0.041   0.000  -0.000   0.000   0.000  -0.000  -0.000   0.000  -0.004   0.000
  0.000   0.000   0.718   0.000  -0.000  -0.000   0.000  -0.215   0.000   0.000  -0.016   0.056  -0.000   0.000   0.000  -0.000
 -0.000  -0.000   0.000   0.050  -0.023   0.000   0.000   0.000  -0.041  -0.013  -0.000  -0.000   0.004  -0.000  -0.000  -0.000
 -0.000  -0.000  -0.000  -0.023   0.090   0.000   0.000   0.000  -0.005  -0.051   0.000  -0.000   0.006  -0.000   0.000   0.000
 -0.051   0.013  -0.000   0.000   0.000  -0.007  -0.018   0.000  -0.000  -0.000   0.000  -0.000  -0.000  -0.000  -0.000   0.000
  0.005  -0.041   0.000   0.000   0.000  -0.018  -0.019  -0.000   0.000  -0.000  -0.000   0.000  -0.000   0.000   0.001   0.000
 -0.000   0.000  -0.215   0.000   0.000   0.000  -0.000   0.050  -0.000  -0.000   0.010  -0.010   0.000  -0.000  -0.000  -0.000
  0.000  -0.000   0.000  -0.041  -0.005  -0.000   0.000  -0.000  -0.019   0.018  -0.000   0.000  -0.001   0.000  -0.000   0.000
 -0.000   0.000   0.000  -0.013  -0.051  -0.000  -0.000  -0.000   0.018  -0.007  -0.000   0.000  -0.000   0.000   0.000   0.000
 -0.000   0.000  -0.016   0.000   0.000   0.000  -0.000   0.010  -0.000  -0.000   0.048   0.031   0.000  -0.000   0.000   0.000
  0.000  -0.000   0.056  -0.000  -0.000  -0.000   0.000  -0.010   0.000   0.000   0.031  -0.014  -0.000   0.000   0.000  -0.000
 -0.000  -0.000  -0.000   0.004   0.006  -0.000  -0.000   0.000  -0.001  -0.000   0.000   0.000   0.007  -0.000  -0.000   0.001
  0.000   0.000   0.000  -0.000  -0.000  -0.000   0.000  -0.000   0.000   0.000  -0.000   0.000  -0.000   0.006  -0.000  -0.000
  0.006  -0.004   0.000  -0.000   0.000  -0.000   0.001  -0.000  -0.000   0.000   0.000   0.000  -0.000  -0.000   0.007   0.000
  0.000   0.000  -0.000  -0.000   0.000   0.000   0.000  -0.000   0.000   0.000   0.000  -0.000   0.001  -0.000   0.000  -0.000
 -0.000   0.000  -0.000   0.000   0.000   0.000   0.000   0.000   0.000  -0.000   0.000  -0.000  -0.000   0.001  -0.000   0.000
  0.000   0.000   0.000   0.000  -0.000   0.000  -0.000   0.000   0.000  -0.000   0.000   0.000  -0.000  -0.000   0.001   0.000


------------------------ aborting loop because EDIFF is reached ----------------------------------------





 total charge     

# of ion       s       p       d       tot
------------------------------------------
    1        0.386   0.527   6.319   7.233
    2        0.386   0.527   6.319   7.233
    3        1.135   1.185   0.121   2.441
    4        1.135   1.185   0.121   2.441
    5        1.371   2.308   0.000   3.678
    6        1.366   2.319   0.000   3.685
    7        1.370   2.309   0.000   3.678
    8        1.371   2.308   0.000   3.678
    9        1.366   2.319   0.000   3.685
   10        1.370   2.309   0.000   3.678
--------------------------------------------------
tot         11.254  17.294  12.881  41.429



 magnetization (x)

# of ion       s       p       d       tot
------------------------------------------
    1        0.011   0.012   1.007   1.030
    2        0.011   0.012   1.007   1.030
    3       -0.004   0.016   0.001   0.012
    4       -0.004   0.016   0.001   0.012
    5       -0.001  -0.024   0.000  -0.025
    6       -0.001  -0.005   0.000  -0.006
    7       -0.001  -0.020   0.000  -0.021
    8       -0.001  -0.024   0.000  -0.025
    9       -0.001  -0.005   0.000  -0.006
   10       -0.001  -0.020   0.000  -0.021
--------------------------------------------------
tot          0.006  -0.040   2.015   1.981

    CHARGE:  cpu time    2.0240: real time    2.0385
    FORLOC:  cpu time    0.0560: real time    0.0552
    FORNL :  cpu time    6.6760: real time    6.8069
    STRESS:  cpu time   20.2240: real time   20.3997
    FORCOR:  cpu time   51.5040: real time   51.8178
    FORHAR:  cpu time    0.3160: real time    0.3296
    MIXING:  cpu time    0.0440: real time    0.0427
    OFIELD:  cpu time    0.0000: real time    0.0001

  FORCE on cell =-STRESS in cart. coord.  units (eV):
  Direction    XX          YY          ZZ          XY          YZ          ZX
  --------------------------------------------------------------------------------------
  Alpha Z    35.67485    35.67485    35.67485
  Ewald   12621.16712 12621.16486-14561.69566    -0.00211    -0.00051    -0.00092
  Hartree 13099.97353 13099.97429-12745.37071    -0.00036     0.00005     0.00007
  E(xc)    -237.56075  -237.56081  -236.28778     0.00006     0.00000     0.00001
  Local  -26600.04349-26600.04330 26400.34303     0.00199     0.00029     0.00054
  n-local   418.85672   419.16446   427.01768     0.16615     0.64986     0.76915
  augment   -21.92319   -21.92333   -31.72616     0.00026    -0.00002     0.00002
  Kinetic   685.47304   681.94494   712.22291    -2.07720     1.68712     1.92578
  Fock        0.00000     0.00000     0.00000     0.00000     0.00000     0.00000
  -------------------------------------------------------------------------------------
  Total       0.00690     0.00690     0.17816     0.00000    -0.00000     0.00000
  in kB       0.01567     0.01567     0.40483     0.00000    -0.00000     0.00000
  external pressure =        0.15 kB  Pullay stress =        0.00 kB


 VOLUME and BASIS-vectors are now :
 -----------------------------------------------------------------------------
  energy-cutoff  :      520.00
  volume of cell :      705.09
      direct lattice vectors                 reciprocal lattice vectors
     5.953047103  0.000000036 -0.000000000     0.167981201 -0.096983985  0.000000000
     2.976523234  5.155489829 -0.000000000    -0.000000001  0.193967991  0.000000000
    -0.000000000 -0.000000000 22.973962488     0.000000000  0.000000000  0.043527537

  length of vectors
     5.953047103  5.953046778 22.973962488     0.193967980  0.193967991  0.043527537


 FORCES acting on ions
    electron-ion (+dipol)            ewald-force                    non-local-force                 convergence-correction
 -----------------------------------------------------------------------------------------------
   -.928E-04 -.648E-04 -.346E+00   0.647E-03 0.387E-03 0.347E+00   0.217E-17 0.872E-18 -.490E-02   -.359E-07 -.235E-07 -.168E-04
   0.928E-04 0.648E-04 0.346E+00   -.647E-03 -.387E-03 -.347E+00   -.174E-17 -.872E-18 0.490E-02   0.359E-07 0.235E-07 0.168E-04
   -.414E-04 -.140E-05 0.271E+03   -.203E-03 -.114E-03 -.268E+03   0.328E-16 0.223E-16 -.352E+01   0.568E-07 0.299E-07 -.178E-01
   0.414E-04 0.140E-05 -.271E+03   0.203E-03 0.114E-03 0.268E+03   -.504E-17 -.223E-16 0.352E+01   -.568E-07 -.299E-07 0.178E-01
   -.310E+02 0.420E-01 -.526E+03   0.265E+02 -.458E-01 0.530E+03   0.449E+01 0.368E-02 -.425E+01   0.591E-03 -.199E-04 0.385E-01
   0.155E+02 0.268E+02 -.526E+03   -.133E+02 -.230E+02 0.530E+03   -.224E+01 -.389E+01 -.425E+01   -.313E-03 -.502E-03 0.385E-01
   0.155E+02 -.269E+02 -.526E+03   -.132E+02 0.230E+02 0.530E+03   -.225E+01 0.389E+01 -.425E+01   -.279E-03 0.522E-03 0.385E-01
   0.310E+02 -.420E-01 0.526E+03   -.265E+02 0.458E-01 -.530E+03   -.449E+01 -.368E-02 0.425E+01   -.591E-03 0.199E-04 -.385E-01
   -.155E+02 -.268E+02 0.526E+03   0.133E+02 0.230E+02 -.530E+03   0.224E+01 0.389E+01 0.425E+01   0.313E-03 0.502E-03 -.385E-01
   -.155E+02 0.269E+02 0.526E+03   0.132E+02 -.230E+02 -.530E+03   0.225E+01 -.389E+01 0.425E+01   0.279E-03 -.522E-03 -.385E-01
 -----------------------------------------------------------------------------------------------
   0.498E-10 -.208E-10 0.158E-09   0.178E-13 0.000E+00 0.000E+00   0.444E-15 0.000E+00 0.888E-15   -.755E-13 -.849E-13 0.517E-11


 POSITION                                       TOTAL-FORCE (eV/Angst)
 -----------------------------------------------------------------------------------
      2.97652      1.71849     11.48774        -0.000000      0.000000     -0.003928
      5.95305      3.43699     11.48622         0.000000     -0.000000      0.003928
     -0.00000     -0.00000     10.29730         0.000000      0.000000     -0.016087
     -0.00000     -0.00000     12.67666        -0.000000     -0.000000      0.016087
      3.67358     -0.00027     12.89535        -0.003470      0.000699      0.006545
      1.13951      1.97422     12.89535         0.002340      0.002656      0.006545
      4.11650      3.18154     12.89535         0.001130     -0.003354      0.006545
      2.27947      0.00027     10.07861         0.003470     -0.000699     -0.006545
      1.83702      3.18127     10.07861        -0.002340     -0.002656     -0.006545
      4.81308      1.97395     10.07861        -0.001130      0.003354     -0.006545
 -----------------------------------------------------------------------------------
    total drift:                                0.000000     -0.000000      0.000000


--------------------------------------------------------------------------------------------------------



  FREE ENERGIE OF THE ION-ELECTRON SYSTEM (eV)
  ---------------------------------------------------
  free  energy   TOTEN  =       -48.08936283 eV

  energy  without entropy=      -48.08936283  energy(sigma->0) =      -48.08936283

 d Force = 0.3191264E-02[ 0.396E-03, 0.599E-02]  d Energy = 0.5473379E-02-0.228E-02
 d Force = 0.2418617E+02[ 0.241E+02, 0.243E+02]  d Ewald  = 0.1167157E+03-0.925E+02


--------------------------------------------------------------------------------------------------------


    POTLOK:  cpu time   51.4960: real time   51.9773


--------------------------------------------------------------------------------------------------------




--------------------------------------------------------------------------------------------------------


  
 reached required accuracy - stopping structural energy minimisation
     LOOP+:  cpu time  689.5400: real time  697.3047
    4ORBIT:  cpu time    0.0000: real time    0.0000



 total charge     

# of ion       s       p       d       tot
------------------------------------------
    1        0.386   0.527   6.319   7.233
    2        0.386   0.527   6.319   7.233
    3        1.135   1.185   0.121   2.441
    4        1.135   1.185   0.121   2.441
    5        1.371   2.308   0.000   3.678
    6        1.366   2.319   0.000   3.685
    7        1.370   2.309   0.000   3.678
    8        1.371   2.308   0.000   3.678
    9        1.366   2.319   0.000   3.685
   10        1.370   2.309   0.000   3.678
--------------------------------------------------
tot         11.254  17.294  12.881  41.429



 magnetization (x)

# of ion       s       p       d       tot
------------------------------------------
    1        0.011   0.012   1.007   1.030
    2        0.011   0.012   1.007   1.030
    3       -0.004   0.016   0.001   0.012
    4       -0.004   0.016   0.001   0.012
    5       -0.001  -0.024   0.000  -0.025
    6       -0.001  -0.005   0.000  -0.006
    7       -0.001  -0.020   0.000  -0.021
    8       -0.001  -0.024   0.000  -0.025
    9       -0.001  -0.005   0.000  -0.006
   10       -0.001  -0.020   0.000  -0.021
--------------------------------------------------
tot          0.006  -0.040   2.015   1.981

 BZINTS: Fermi energy: -2.899930; 60.000000 electrons
         Band energy:-485.430121;  BLOECHL correction:  0.000000

 total amount of memory used by VASP MPI-rank0   130179. kBytes
=======================================================================

   base      :      30000. kBytes
   nonlr-proj:       9884. kBytes
   fftplans  :      11247. kBytes
   grid      :      66142. kBytes
   one-center:        311. kBytes
   wavefun   :      12595. kBytes

  
  
 General timing and accounting informations for this job:
 ========================================================
  
                  Total CPU time used (sec):    20557.172
                            User time (sec):    20054.048
                          System time (sec):      503.124
                         Elapsed time (sec):    20744.956
  
                   Maximum memory used (kb):      387828.
                   Average memory used (kb):           0.
  
                          Minor page faults:     18093477
                          Major page faults:            5
                 Voluntary context switches:         1092
