       N       E                     dE             d eps       ncg     rms          rms(c)
DAV:   1     0.407481948963E+03    0.40748E+03   -0.16596E+04   960   0.833E+02
DAV:   2     0.304268056347E+02   -0.37706E+03   -0.34590E+03  1168   0.163E+02
DAV:   3    -0.454070125438E+02   -0.75834E+02   -0.72998E+02  1360   0.792E+01
DAV:   4    -0.491892458335E+02   -0.37822E+01   -0.36772E+01  1296   0.239E+01
DAV:   5    -0.492977118669E+02   -0.10847E+00   -0.10808E+00  1312   0.400E+00    0.242E+01
DAV:   6    -0.920101624269E+02   -0.42712E+02   -0.19325E+02  1392   0.723E+01    0.579E+01
DAV:   7    -0.448424063083E+02    0.47168E+02   -0.17024E+02  1360   0.907E+01    0.191E+01
DAV:   8    -0.294432061421E+03   -0.24959E+03   -0.29231E+03  1440   0.659E+01    0.208E+01
DAV:   9    -0.418893523453E+02    0.25254E+03   -0.10503E+03  1088   0.282E+01    0.110E+01
DAV:  10    -0.436302076532E+02   -0.17409E+01   -0.34129E-01  1152   0.327E+00    0.740E+00
DAV:  11    -0.444023400515E+02   -0.77213E+00   -0.40363E-01  1488   0.419E+00    0.444E+00
DAV:  12    -0.450599155501E+02   -0.65758E+00   -0.92310E-01  1520   0.693E+00    0.350E+00
DAV:  13    -0.452668075608E+02   -0.20689E+00   -0.34349E-01  1216   0.270E+00    0.281E+00
DAV:  14    -0.453462192841E+02   -0.79412E-01   -0.59203E-01  1104   0.484E+00    0.211E+00
DAV:  15    -0.454566065224E+02   -0.11039E+00   -0.63850E-02  1312   0.294E+00    0.158E+00
DAV:  16    -0.454815777452E+02   -0.24971E-01   -0.53624E-02  1328   0.185E+00    0.119E+00
DAV:  17    -0.455011817661E+02   -0.19604E-01   -0.28869E-02  1104   0.111E+00    0.104E+00
DAV:  18    -0.455510872079E+02   -0.49905E-01   -0.23972E-02  1136   0.824E-01    0.753E-01
DAV:  19    -0.455878747221E+02   -0.36788E-01   -0.16787E-02  1216   0.613E-01    0.534E-01
DAV:  20    -0.456136293456E+02   -0.25755E-01   -0.15589E-02  1120   0.576E-01    0.321E-01
DAV:  21    -0.456214348986E+02   -0.78056E-02   -0.59460E-03  1152   0.412E-01    0.240E-01
DAV:  22    -0.456265293679E+02   -0.50945E-02   -0.30210E-03  1056   0.312E-01    0.178E-01
DAV:  23    -0.456328199013E+02   -0.62905E-02   -0.19501E-03  1120   0.261E-01    0.132E-01
DAV:  24    -0.456376842194E+02   -0.48643E-02   -0.78363E-04  1216   0.183E-01    0.854E-02
DAV:  25    -0.456410202932E+02   -0.33361E-02   -0.98747E-04  1008   0.166E-01    0.456E-02
DAV:  26    -0.456409974151E+02    0.22878E-04   -0.48524E-04  1056   0.110E-01
   1 F= -.45640997E+02 E0= -.45640997E+02  d E =-.456410E+02  mag=     5.3934
       N       E                     dE             d eps       ncg     rms          rms(c)
DAV:   1    -0.583752728813E+02   -0.12734E+02   -0.32187E+02  1200   0.100E+02    0.194E+01
DAV:   2    -0.517263537918E+02    0.66489E+01   -0.25117E+01  1360   0.382E+01    0.122E+01
DAV:   3    -0.507537558308E+02    0.97260E+00   -0.23780E+01  1472   0.560E+01    0.117E+01
DAV:   4    -0.480340346248E+02    0.27197E+01   -0.11864E+01  1472   0.219E+01    0.249E+00
DAV:   5    -0.480261150260E+02    0.79196E-02   -0.55997E-01  1376   0.327E+00    0.949E-01
DAV:   6    -0.480312873800E+02   -0.51724E-02   -0.79981E-02  1392   0.150E+00    0.502E-01
DAV:   7    -0.480338474949E+02   -0.25601E-02   -0.25897E-02  1376   0.175E+00    0.493E-01
DAV:   8    -0.480323093769E+02    0.15381E-02   -0.16685E-02  1504   0.152E+00    0.224E-01
DAV:   9    -0.480343570105E+02   -0.20476E-02   -0.40843E-03  1152   0.516E-01    0.967E-02
DAV:  10    -0.480352920262E+02   -0.93502E-03   -0.19693E-03   960   0.230E-01    0.732E-02
DAV:  11    -0.480364061705E+02   -0.11141E-02   -0.16727E-03  1040   0.164E-01    0.527E-02
DAV:  12    -0.480367279615E+02   -0.32179E-03   -0.29440E-03  1072   0.159E-01    0.586E-02
DAV:  13    -0.480359172677E+02    0.81069E-03   -0.17102E-03  1024   0.115E-01    0.386E-02
DAV:  14    -0.480345847530E+02    0.13325E-02   -0.66849E-04  1072   0.736E-02    0.357E-02
DAV:  15    -0.480339011202E+02    0.68363E-03   -0.11197E-04   832   0.434E-02    0.257E-02
DAV:  16    -0.480329232192E+02    0.97790E-03   -0.84344E-05   832   0.489E-02    0.244E-02
DAV:  17    -0.480316667263E+02    0.12565E-02   -0.14917E-04   864   0.622E-02    0.182E-02
DAV:  18    -0.480312819172E+02    0.38481E-03   -0.19647E-04   864   0.572E-02    0.134E-02
DAV:  19    -0.480312039422E+02    0.77975E-04   -0.26762E-04   976   0.705E-02
   2 F= -.48031204E+02 E0= -.48031204E+02  d E =-.239021E+01  mag=     5.3676
       N       E                     dE             d eps       ncg     rms          rms(c)
DAV:   1    -0.482393346141E+02   -0.20805E+00   -0.44609E+00  1328   0.118E+01    0.220E+00
DAV:   2    -0.481548981402E+02    0.84436E-01   -0.36581E-01  1312   0.573E+00    0.153E+00
DAV:   3    -0.481254425179E+02    0.29456E-01   -0.20510E-01  1328   0.470E+00    0.115E+00
DAV:   4    -0.480970151436E+02    0.28427E-01   -0.10156E-01  1328   0.301E+00    0.238E-01
DAV:   5    -0.480958624788E+02    0.11527E-02   -0.62481E-03  1312   0.666E-01    0.797E-02
DAV:   6    -0.480956833139E+02    0.17916E-03   -0.54994E-04  1072   0.105E-01    0.478E-02
DAV:   7    -0.480957046556E+02   -0.21342E-04   -0.21498E-04   912   0.159E-01
   3 F= -.48095705E+02 E0= -.48095705E+02  d E =-.245471E+01  mag=     5.3873
       N       E                     dE             d eps       ncg     rms          rms(c)
DAV:   1    -0.481126091589E+02   -0.16926E-01   -0.10973E+00   976   0.334E+00    0.260E-01
DAV:   2    -0.481182339183E+02   -0.56248E-02   -0.71567E-02  1056   0.112E+00    0.181E-01
DAV:   3    -0.481181055377E+02    0.12838E-03   -0.41527E-03  1328   0.609E-01    0.147E-01
DAV:   4    -0.481175859647E+02    0.51957E-03   -0.10609E-03  1280   0.348E-01    0.655E-02
DAV:   5    -0.481174850828E+02    0.10088E-03   -0.64974E-04  1184   0.232E-01    0.670E-02
DAV:   6    -0.481173943013E+02    0.90781E-04   -0.28780E-04  1040   0.209E-01
   4 F= -.48117394E+02 E0= -.48117394E+02  d E =-.216896E-01  mag=     5.3920
       N       E                     dE             d eps       ncg     rms          rms(c)
DAV:   1    -0.481162547857E+02    0.12303E-02   -0.64374E-01  1008   0.255E+00    0.201E-01
DAV:   2    -0.481194743613E+02   -0.32196E-02   -0.42044E-02  1056   0.856E-01    0.140E-01
DAV:   3    -0.481193985413E+02    0.75820E-04   -0.24882E-03  1344   0.470E-01    0.113E-01
DAV:   4    -0.481190767381E+02    0.32180E-03   -0.54899E-04  1120   0.250E-01    0.483E-02
DAV:   5    -0.481190091147E+02    0.67623E-04   -0.35560E-04  1008   0.807E-02
   5 F= -.48119009E+02 E0= -.48119009E+02  d E =-.233045E-01  mag=     5.3921
       N       E                     dE             d eps       ncg     rms          rms(c)
DAV:   1    -0.481248447276E+02   -0.57680E-02   -0.43124E-01  1120   0.219E+00    0.285E-01
DAV:   2    -0.481247973617E+02    0.47366E-04   -0.25673E-02  1088   0.669E-01    0.170E-01
DAV:   3    -0.481240726596E+02    0.72470E-03   -0.30352E-03  1328   0.534E-01    0.164E-01
DAV:   4    -0.481236760906E+02    0.39657E-03   -0.22743E-03  1408   0.532E-01    0.851E-02
DAV:   5    -0.481236564787E+02    0.19612E-04   -0.72114E-04   960   0.290E-01
   6 F= -.48123656E+02 E0= -.48123656E+02  d E =-.464736E-02  mag=     5.3866
       N       E                     dE             d eps       ncg     rms          rms(c)
DAV:   1    -0.481234526697E+02    0.22342E-03   -0.37405E-02  1088   0.668E-01    0.886E-02
DAV:   2    -0.481230935154E+02    0.35915E-03   -0.24582E-03  1104   0.248E-01    0.624E-02
DAV:   3    -0.481229055164E+02    0.18800E-03   -0.39444E-04  1088   0.223E-01    0.612E-02
DAV:   4    -0.481227943257E+02    0.11119E-03   -0.26911E-04   912   0.175E-01    0.237E-02
DAV:   5    -0.481227648159E+02    0.29510E-04   -0.12797E-04   752   0.118E-01
   7 F= -.48122765E+02 E0= -.48122765E+02  d E =-.375570E-02  mag=     5.3809
