 vasp.5.4.4.18Apr17-6-g9f103f2a35 (build May  1 2020 15:48:39) complex           
 executed on             LinuxGNU date 2020.06.18  09:02:10
 running on   16 total cores
 distrk:  each k-point on   16 cores,    1 groups
 distr:  one band on NCORES_PER_BAND=   1 cores,   16 groups


--------------------------------------------------------------------------------------------------------


 INCAR:
 POTCAR:   PAW_PBE Cr 06Sep2000                   
 POTCAR:    PAW_PBE P 17Jan2003                   
 POTCAR:   PAW_PBE Ge 05Jan2001                   
 POTCAR:   PAW_PBE Se 06Sep2000                   

 ----------------------------------------------------------------------------- 
|                                                                             |
|           W    W    AA    RRRRR   N    N  II  N    N   GGGG   !!!           |
|           W    W   A  A   R    R  NN   N  II  NN   N  G    G  !!!           |
|           W    W  A    A  R    R  N N  N  II  N N  N  G       !!!           |
|           W WW W  AAAAAA  RRRRR   N  N N  II  N  N N  G  GGG   !            |
|           WW  WW  A    A  R   R   N   NN  II  N   NN  G    G                |
|           W    W  A    A  R    R  N    N  II  N    N   GGGG   !!!           |
|                                                                             |
|      For optimal performance we recommend to set                            |
|        NCORE= 4 - approx SQRT( number of cores)                             |
|      NCORE specifies how many cores store one orbital (NPAR=cpu/NCORE).     |
|      This setting can  greatly improve the performance of VASP for DFT.     |
|      The default,   NCORE=1            might be grossly inefficient         |
|      on modern multi-core architectures or massively parallel machines.     |
|      Do your own testing !!!!                                               |
|      Unfortunately you need to use the default for GW and RPA calculations. |
|      (for HF NCORE is supported but not extensively tested yet)             |
|                                                                             |
 ----------------------------------------------------------------------------- 


 ----------------------------------------------------------------------------- 
|                                                                             |
|  ADVICE TO THIS USER RUNNING 'VASP/VAMP'   (HEAR YOUR MASTER'S VOICE ...):  |
|                                                                             |
|      You have switched on vdW-DFT.                                          |
|      This routine was written and supplied by Jiri Klimes.                  |
|      We recommed that you carefully read and cite the following             |
|      publication                                                            |
|      J. Klimes, D.R. Bowler, A. Michelides                                  |
|        J. Phys.: Cond Matt. 22 022201 (2010)                                |
|      J. Klimes, D.R. Bowler, A. Michelides                                  |
|        Phys. Rev. B. 83, 195131 (2011)                                      |
|      and references therein.                                                |
|                                                                             |
 ----------------------------------------------------------------------------- 

 POTCAR:   PAW_PBE Cr 06Sep2000                   
   VRHFIN =Cr : d5 s1                                                           
   LEXCH  = PE                                                                  
   EATOM  =   276.9744 eV,   20.3570 Ry                                         
                                                                                
   TITEL  = PAW_PBE Cr 06Sep2000                                                
   LULTRA =        F    use ultrasoft PP ?                                      
   IUNSCR =        1    unscreen: 0-lin 1-nonlin 2-no                           
   RPACOR =    2.080    partial core radius                                     
   POMASS =   51.996; ZVAL   =    6.000    mass and valenz                      
   RCORE  =    2.500    outmost cutoff radius                                   
   RWIGS  =    2.500; RWIGS  =    1.323    wigner-seitz radius (au A)           
   ENMAX  =  227.082; ENMIN  =  170.311 eV                                      
   RCLOC  =    1.721    cutoff for local pot                                    
   LCOR   =        T    correct aug charges                                     
   LPAW   =        T    paw PP                                                  
   EAUG   =  402.108                                                            
   DEXC   =    -.035                                                            
   RMAX   =    3.060    core radius for proj-oper                               
   RAUG   =    1.300    factor for augmentation sphere                          
   RDEP   =    2.609    radius for radial grids                                 
   QCUT   =   -4.085; QGAM   =    8.171    optimization parameters              
                                                                                
   Description                                                                  
     l     E      TYP  RCUT    TYP  RCUT                                        
     2   .000     23  2.500                                                     
     2   .000     23  2.500                                                     
     0   .000     23  2.500                                                     
     0   .000     23  2.500                                                     
     1  -.400     23  2.500                                                     
     1  2.000     23  2.500                                                     
     3   .000      7   .000                                                     
  local pseudopotential read in
  partial core-charges read in
  atomic valenz-charges read in
  non local Contribution for L=           2  read in
    real space projection operators read in
  non local Contribution for L=           2  read in
    real space projection operators read in
  non local Contribution for L=           0  read in
    real space projection operators read in
  non local Contribution for L=           0  read in
    real space projection operators read in
  non local Contribution for L=           1  read in
    real space projection operators read in
  non local Contribution for L=           1  read in
    real space projection operators read in
    PAW grid and wavefunctions read in

   number of l-projection  operators is LMAX  =           6
   number of lm-projection operators is LMMAX =          18

 POTCAR:    PAW_PBE P 17Jan2003                   
   VRHFIN =P : s2p3                                                             
   LEXCH  = PE                                                                  
   EATOM  =   176.0430 eV,   12.9388 Ry                                         
                                                                                
   TITEL  = PAW_PBE P 17Jan2003                                                 
   LULTRA =        F    use ultrasoft PP ?                                      
   IUNSCR =        1    unscreen: 0-lin 1-nonlin 2-no                           
   RPACOR =    1.500    partial core radius                                     
   POMASS =   30.974; ZVAL   =    5.000    mass and valenz                      
   RCORE  =    1.900    outmost cutoff radius                                   
   RWIGS  =    2.330; RWIGS  =    1.233    wigner-seitz radius (au A)           
   ENMAX  =  270.000; ENMIN  =  191.280 eV                                      
   ICORE  =        2    local potential                                         
   LCOR   =        T    correct aug charges                                     
   LPAW   =        T    paw PP                                                  
   EAUG   =  342.924                                                            
   DEXC   =    -.002                                                            
   RMAX   =    2.887    core radius for proj-oper                               
   RAUG   =    1.300    factor for augmentation sphere                          
   RDEP   =    1.931    radius for radial grids                                 
   QCUT   =   -4.330; QGAM   =    8.659    optimization parameters              
                                                                                
   Description                                                                  
     l     E      TYP  RCUT    TYP  RCUT                                        
     0   .000     23  1.900                                                     
     0   .000     23  1.900                                                     
     1   .000     23  1.900                                                     
     1   .000     23  1.900                                                     
     2   .000     23  1.900                                                     
  local pseudopotential read in
  partial core-charges read in
  atomic valenz-charges read in
  non local Contribution for L=           0  read in
    real space projection operators read in
  non local Contribution for L=           0  read in
    real space projection operators read in
  non local Contribution for L=           1  read in
    real space projection operators read in
  non local Contribution for L=           1  read in
    real space projection operators read in
    PAW grid and wavefunctions read in

   number of l-projection  operators is LMAX  =           4
   number of lm-projection operators is LMMAX =           8

 POTCAR:   PAW_PBE Ge 05Jan2001                   
   VRHFIN =Ge: s2p2                                                             
   LEXCH  = PE                                                                  
   EATOM  =   104.9960 eV,    7.7170 Ry                                         
                                                                                
   TITEL  = PAW_PBE Ge 05Jan2001                                                
   LULTRA =        F    use ultrasoft PP ?                                      
   IUNSCR =        1    unscreen: 0-lin 1-nonlin 2-no                           
   RPACOR =    2.170    partial core radius                                     
   POMASS =   72.610; ZVAL   =    4.000    mass and valenz                      
   RCORE  =    2.300    outmost cutoff radius                                   
   RWIGS  =    2.300; RWIGS  =    1.217    wigner-seitz radius (au A)           
   ENMAX  =  173.807; ENMIN  =  130.355 eV                                      
   ICORE  =        3    local potential                                         
   LCOR   =        T    correct aug charges                                     
   LPAW   =        T    paw PP                                                  
   EAUG   =  385.843                                                            
   DEXC   =    -.138                                                            
   RMAX   =    3.497    core radius for proj-oper                               
   RAUG   =    1.300    factor for augmentation sphere                          
   RDEP   =    2.318    radius for radial grids                                 
   QCUT   =   -3.574; QGAM   =    7.148    optimization parameters              
                                                                                
   Description                                                                  
     l     E      TYP  RCUT    TYP  RCUT                                        
     0   .000     23  2.300                                                     
     0   .000     23  2.300                                                     
     1   .000     23  2.300                                                     
     1   .000     23  2.300                                                     
     2   .000     23  2.300                                                     
     3  -.100      7  2.300                                                     
  local pseudopotential read in
  partial core-charges read in
  atomic valenz-charges read in
  non local Contribution for L=           0  read in
    real space projection operators read in
  non local Contribution for L=           0  read in
    real space projection operators read in
  non local Contribution for L=           1  read in
    real space projection operators read in
  non local Contribution for L=           1  read in
    real space projection operators read in
  non local Contribution for L=           2  read in
    real space projection operators read in
    PAW grid and wavefunctions read in

   number of l-projection  operators is LMAX  =           5
   number of lm-projection operators is LMMAX =          13

 POTCAR:   PAW_PBE Se 06Sep2000                   
   VRHFIN =Se: s2p4                                                             
   LEXCH  = PE                                                                  
   EATOM  =   256.9644 eV,   18.8864 Ry                                         
                                                                                
   TITEL  = PAW_PBE Se 06Sep2000                                                
   LULTRA =        F    use ultrasoft PP ?                                      
   IUNSCR =        1    unscreen: 0-lin 1-nonlin 2-no                           
   RPACOR =    1.900    partial core radius                                     
   POMASS =   78.960; ZVAL   =    6.000    mass and valenz                      
   RCORE  =    2.100    outmost cutoff radius                                   
   RWIGS  =    2.200; RWIGS  =    1.164    wigner-seitz radius (au A)           
   ENMAX  =  211.534; ENMIN  =  158.651 eV                                      
   ICORE  =        3    local potential                                         
   LCOR   =        T    correct aug charges                                     
   LPAW   =        T    paw PP                                                  
   EAUG   =  446.842                                                            
   DEXC   =    -.031                                                            
   RMAX   =    3.170    core radius for proj-oper                               
   RAUG   =    1.300    factor for augmentation sphere                          
   RDEP   =    2.177    radius for radial grids                                 
   QCUT   =   -3.943; QGAM   =    7.886    optimization parameters              
                                                                                
   Description                                                                  
     l     E      TYP  RCUT    TYP  RCUT                                        
     0   .000     23  2.100                                                     
     0   .000     23  2.100                                                     
     1   .000     23  2.100                                                     
     1   .000     23  2.100                                                     
     2   .000     23  2.100                                                     
     3  -.100      7  2.100                                                     
  local pseudopotential read in
  partial core-charges read in
  atomic valenz-charges read in
  non local Contribution for L=           0  read in
    real space projection operators read in
  non local Contribution for L=           0  read in
    real space projection operators read in
  non local Contribution for L=           1  read in
    real space projection operators read in
  non local Contribution for L=           1  read in
    real space projection operators read in
  non local Contribution for L=           2  read in
    real space projection operators read in
    PAW grid and wavefunctions read in

   number of l-projection  operators is LMAX  =           5
   number of lm-projection operators is LMMAX =          13

 Optimization of the real space projectors (new method)

 maximal supplied QI-value         = 15.12
 optimisation between [QCUT,QGAM] = [ 11.64, 23.28] = [ 37.95,151.78] Ry 
 Optimized for a Real-space Cutoff    1.49 Angstroem

   l    n(q)    QCUT    max X(q) W(low)/X(q) W(high)/X(q)  e(spline) 
   2      9    11.641     4.777    0.25E-04    0.21E-05    0.63E-07
   2      9    11.641    31.132    0.13E-03    0.22E-03    0.64E-06
   0     10    11.641    20.416    0.11E-04    0.74E-05    0.19E-07
   0     10    11.641    45.408    0.10E-03    0.85E-04    0.30E-06
   1     10    11.641     7.848    0.22E-04    0.23E-04    0.56E-07
   1     10    11.641     9.895    0.85E-04    0.54E-04    0.16E-06
 Optimization of the real space projectors (new method)

 maximal supplied QI-value         = 19.84
 optimisation between [QCUT,QGAM] = [ 11.51, 23.22] = [ 37.09,150.92] Ry 
 Optimized for a Real-space Cutoff    1.21 Angstroem

   l    n(q)    QCUT    max X(q) W(low)/X(q) W(high)/X(q)  e(spline) 
   0      8    11.508     6.651    0.19E-04    0.31E-05    0.49E-08
   0      8    11.508    90.285    0.95E-04    0.17E-03    0.51E-07
   1      8    11.508     4.328    0.14E-04    0.32E-04    0.22E-07
   1      8    11.508    54.583    0.16E-03    0.71E-04    0.89E-07
 Optimization of the real space projectors (new method)

 maximal supplied QI-value         = 16.25
 optimisation between [QCUT,QGAM] = [ 11.54, 23.24] = [ 37.28,151.24] Ry 
 Optimized for a Real-space Cutoff    1.28 Angstroem

   l    n(q)    QCUT    max X(q) W(low)/X(q) W(high)/X(q)  e(spline) 
   0      9    11.539     8.651    0.22E-04    0.16E-04    0.10E-07
   0      9    11.539    33.192    0.11E-03    0.16E-03    0.65E-07
   1      8    11.539     5.899    0.37E-04    0.28E-04    0.43E-07
   1      8    11.539    27.289    0.22E-03    0.28E-04    0.14E-06
   2      8    11.539     4.673    0.11E-03    0.18E-03    0.58E-07
 Optimization of the real space projectors (new method)

 maximal supplied QI-value         = 17.95
 optimisation between [QCUT,QGAM] = [ 11.67, 23.34] = [ 38.13,152.52] Ry 
 Optimized for a Real-space Cutoff    1.25 Angstroem

   l    n(q)    QCUT    max X(q) W(low)/X(q) W(high)/X(q)  e(spline) 
   0      9    11.669     6.499    0.13E-04    0.81E-05    0.11E-07
   0      9    11.669    52.623    0.18E-03    0.46E-04    0.72E-07
   1      8    11.669     4.229    0.40E-04    0.45E-04    0.31E-07
   1      8    11.669    29.991    0.22E-03    0.36E-03    0.10E-06
   2      8    11.669     3.719    0.19E-03    0.46E-04    0.50E-07

 ----------------------------------------------------------------------------- 
|                                                                             |
|  ADVICE TO THIS USER RUNNING 'VASP/VAMP'   (HEAR YOUR MASTER'S VOICE ...):  |
|                                                                             |
|      You enforced a specific xc-type in the INCAR file,                     |
|      a different type was found on the POTCAR file                          |
|          I HOPE YOU KNOW, WHAT YOU ARE  DOING                               |
|                                                                             |
 ----------------------------------------------------------------------------- 

 PAW_PBE Cr 06Sep2000                   :
 energy of atom  1       EATOM= -276.9744
 kinetic energy error for atom=    0.0010 (will be added to EATOM!!)
  PAW_PBE P 17Jan2003                   :
 energy of atom  2       EATOM= -176.0430
 kinetic energy error for atom=    0.0011 (will be added to EATOM!!)
 PAW_PBE Ge 05Jan2001                   :
 energy of atom  3       EATOM= -104.9960
 kinetic energy error for atom=    0.0002 (will be added to EATOM!!)
 PAW_PBE Se 06Sep2000                   :
 energy of atom  4       EATOM= -256.9644
 kinetic energy error for atom=    0.0007 (will be added to EATOM!!)


 POSCAR: Cr2 P Ge Se6                            
  positions in direct lattice
  velocities in cartesian coordinates
  No initial velocities read in
 exchange correlation table for  LEXCH =       42
   RHO(1)=    0.500       N(1)  =     2000
   RHO(2)=  100.500       N(2)  =     4000



--------------------------------------------------------------------------------------------------------


 ion  position               nearest neighbor table
   1  0.333  0.333  0.500-   6 2.78   5 2.78   7 2.78   8 2.78  10 2.78   9 2.78
   2  0.667  0.667  0.500-   9 2.78   8 2.78  10 2.78   5 2.78   7 2.78   6 2.78
   3  0.000  0.000  0.448-   4 2.43   8 2.63  10 2.63   9 2.63
   4  0.000  0.000  0.552-   3 2.43   5 2.63   7 2.63   6 2.63
   5  0.626  0.000  0.574-   4 2.63   1 2.78   2 2.78
   6  0.000  0.373  0.574-   4 2.63   1 2.78   2 2.78
   7  0.373  0.626  0.574-   4 2.63   1 2.78   2 2.78
   8  0.374  1.000  0.426-   3 2.63   2 2.78   1 2.78
   9  1.000  0.627  0.426-   3 2.63   2 2.78   1 2.78
  10  0.627  0.374  0.426-   3 2.63   2 2.78   1 2.78

  LATTYP: Found a hexagonal cell.
 ALAT       =     6.9077769333
 C/A-ratio  =     3.3939410937
  
  Lattice vectors:
  
 A1 = (   3.4538890000,  -5.9823100000,   0.0000000000)
 A2 = (  -6.9077770000,   0.0000000000,   0.0000000000)
 A3 = (   0.0000000000,   0.0000000000, -23.4445880000)


Analysis of symmetry for initial positions (statically):
=====================================================================
 Subroutine PRICEL returns:
 Original cell was already a primitive cell.
 

 Routine SETGRP: Setting up the symmetry group for a 
 hexagonal supercell.


 Subroutine GETGRP returns: Found  3 space group operations
 (whereof  3 operations were pure point group operations)
 out of a pool of 24 trial point group operations.


The static configuration has the point symmetry C_3 .


Analysis of symmetry for dynamics (positions and initial velocities):
=====================================================================
 Subroutine PRICEL returns:
 Original cell was already a primitive cell.
 

 Routine SETGRP: Setting up the symmetry group for a 
 hexagonal supercell.


 Subroutine GETGRP returns: Found  3 space group operations
 (whereof  3 operations were pure point group operations)
 out of a pool of 24 trial point group operations.


The dynamic configuration has the point symmetry C_3 .


Analysis of constrained symmetry for selective dynamics:
=====================================================================
 Subroutine PRICEL returns:
 Original cell was already a primitive cell.
 

 Routine SETGRP: Setting up the symmetry group for a 
 hexagonal supercell.


 Subroutine GETGRP returns: Found  3 space group operations
 (whereof  3 operations were pure point group operations)
 out of a pool of 24 trial point group operations.


The constrained configuration has the point symmetry C_3 .


Analysis of structural, dynamic, and magnetic symmetry:
=====================================================================
 Subroutine PRICEL returns:
 Original cell was already a primitive cell.
 

 Routine SETGRP: Setting up the symmetry group for a 
 hexagonal supercell.


 Subroutine GETGRP returns: Found  3 space group operations
 (whereof  3 operations were pure point group operations)
 out of a pool of 24 trial point group operations.


The magnetic configuration has the point symmetry C_3 .


 Subroutine INISYM returns: Found  3 space group operations
 (whereof  3 operations are pure point group operations),
 and found     1 'primitive' translations



 KPOINTS: Kpoints from vasprun.xml                

Automatic generation of k-mesh.
Space group operators:
 irot       det(A)        alpha          n_x          n_y          n_z        tau_x        tau_y        tau_z
    1     1.000000     0.000000     1.000000     0.000000     0.000000     0.000000     0.000000     0.000000
    2     1.000000   120.000000     0.000000     0.000000     1.000000     0.000000     0.000000     0.000000
    3     1.000000   120.000000     0.000000     0.000000    -1.000000     0.000000     0.000000     0.000000
 
 Subroutine IBZKPT returns following result:
 ===========================================
 
 Found      5 irreducible k-points:
 
 Following reciprocal coordinates:
            Coordinates               Weight
  0.000000  0.000000  0.000000      1.000000
  0.200000  0.000000  0.000000      6.000000
  0.400000  0.000000  0.000000      6.000000
  0.400000  0.200000  0.000000      6.000000
 -0.400000  0.200000  0.000000      6.000000
 
 Following cartesian coordinates:
            Coordinates               Weight
  0.000000  0.000000  0.000000      1.000000
  0.028953 -0.016716  0.000000      6.000000
  0.057906 -0.033432  0.000000      6.000000
  0.057906  0.000000  0.000000      6.000000
 -0.057906  0.066864  0.000000      6.000000
 
 TETIRR: Found     15 inequivalent tetrahedra from      150


--------------------------------------------------------------------------------------------------------




 Dimension of arrays:
   k-points           NKPTS =      5   k-points in BZ     NKDIM =      5   number of bands    NBANDS=     48
   number of dos      NEDOS =    301   number of ions     NIONS =     10
   non local maximal  LDIM  =      6   non local SUM 2l+1 LMDIM =     18
   total plane-waves  NPLWV = 524880
   max r-space proj   IRMAX =   7543   max aug-charges    IRDMAX=  29641
   dimension x,y,z NGX =    54 NGY =   54 NGZ =  180
   dimension x,y,z NGXF=   108 NGYF=  108 NGZF=  360
   support grid    NGXF=   108 NGYF=  108 NGZF=  360
   ions per type =               2   1   1   6
   NGX,Y,Z   is equivalent  to a cutoff of  13.00, 13.00, 12.76 a.u.
   NGXF,Y,Z  is equivalent  to a cutoff of  25.99, 25.99, 25.53 a.u.

 SYSTEM =  unknown system                          
 POSCAR =  Cr2 P Ge Se6                            

 Startparameter for this run:
   NWRITE =      2    write-flag & timer
   PREC   = accura    normal or accurate (medium, high low for compatibility)
   ISTART =      0    job   : 0-new  1-cont  2-samecut
   ICHARG =      2    charge: 1-file 2-atom 10-const
   ISPIN  =      2    spin polarized calculation?
   LNONCOLLINEAR =      F non collinear calculations
   LSORBIT =      F    spin-orbit coupling
   INIWAV =      1    electr: 0-lowe 1-rand  2-diag
   LASPH  =      F    aspherical Exc in radial PAW
   METAGGA=      F    non-selfconsistent MetaGGA calc.

 Electronic Relaxation 1
   ENCUT  =  520.0 eV  38.22 Ry    6.18 a.u.  12.84 12.84 43.59*2*pi/ulx,y,z
   ENINI  =  520.0     initial cutoff
   ENAUG  =  446.8 eV  augmentation charge cutoff
   NELM   =    400;   NELMIN=  2; NELMDL=  0     # of ELM steps 
   EDIFF  = 0.1E-03   stopping-criterion for ELM
   LREAL  =      T    real-space projection
   NLSPLINE    = F    spline interpolate recip. space projectors
   LCOMPAT=      F    compatible to vasp.4.4
   GGA_COMPAT  = T    GGA compatible to vasp.4.4-vasp.4.6
   LMAXPAW     = -100 max onsite density
   LMAXMIX     =    2 max onsite mixed and CHGCAR
   VOSKOWN=      0    Vosko Wilk Nusair interpolation
   ROPT   =   -0.00025  -0.00025  -0.00025  -0.00025
 Ionic relaxation
   EDIFFG = 0.1E-02   stopping-criterion for IOM
   NSW    =     99    number of steps for IOM
   NBLOCK =      1;   KBLOCK =     99    inner block; outer block 
   IBRION =      2    ionic relax: 0-MD 1-quasi-New 2-CG
   NFREE  =      1    steps in history (QN), initial steepest desc. (CG)
   ISIF   =      3    stress and relaxation
   IWAVPR =     11    prediction:  0-non 1-charg 2-wave 3-comb
   ISYM   =      2    0-nonsym 1-usesym 2-fastsym
   LCORR  =      T    Harris-Foulkes like correction to forces

   POTIM  = 0.5000    time-step for ionic-motion
   TEIN   =    0.0    initial temperature
   TEBEG  =    0.0;   TEEND  =   0.0 temperature during run
   SMASS  =  -3.00    Nose mass-parameter (am)
   estimated Nose-frequenzy (Omega)   =  0.10E-29 period in steps =****** mass=  -0.109E-26a.u.
   SCALEE = 1.0000    scale energy and forces
   NPACO  =    256;   APACO  = 16.0  distance and # of slots for P.C.
   PSTRESS=    0.0 pullay stress

  Mass of Ions in am
   POMASS =  52.00 30.97 72.61 78.96
  Ionic Valenz
   ZVAL   =   6.00  5.00  4.00  6.00
  Atomic Wigner-Seitz radii
   RWIGS  =  -1.00 -1.00 -1.00 -1.00
  virtual crystal weights 
   VCA    =   1.00  1.00  1.00  1.00
   NELECT =      57.0000    total number of electrons
   NUPDOWN=      -1.0000    fix difference up-down

 DOS related values:
   EMIN   =  10.00;   EMAX   =-10.00  energy-range for DOS
   EFERMI =   0.00
   ISMEAR =    -5;   SIGMA  =   0.05  broadening in eV -4-tet -1-fermi 0-gaus

 Electronic relaxation 2 (details)
   IALGO  =     38    algorithm
   LDIAG  =      T    sub-space diagonalisation (order eigenvalues)
   LSUBROT=      F    optimize rotation matrix (better conditioning)
   TURBO    =      0    0=normal 1=particle mesh
   IRESTART =      0    0=no restart 2=restart with 2 vectors
   NREBOOT  =      0    no. of reboots
   NMIN     =      0    reboot dimension
   EREF     =   0.00    reference energy to select bands
   IMIX   =      4    mixing-type and parameters
     AMIX     =   0.40;   BMIX     =  1.00
     AMIX_MAG =   1.60;   BMIX_MAG =  1.00
     AMIN     =   0.01
     WC   =   100.;   INIMIX=   1;  MIXPRE=   1;  MAXMIX= -45

 Intra band minimization:
   WEIMIN = 0.0010     energy-eigenvalue tresh-hold
   EBREAK =  0.52E-06  absolut break condition
   DEPER  =   0.30     relativ break condition  

   TIME   =   0.40     timestep for ELM

  volume/ion in A,a.u.               =      96.88       653.80
  Fermi-wavevector in a.u.,A,eV,Ry     =   0.636722  1.203230  5.516004  0.405415
  Thomas-Fermi vector in A             =   1.701488

 Write flags
   LWAVE        =      F    write WAVECAR
   LDOWNSAMPLE  =      F    k-point downsampling of WAVECAR
   LCHARG       =      T    write CHGCAR
   LVTOT        =      F    write LOCPOT, total local potential
   LVHAR        =      F    write LOCPOT, Hartree potential only
   LELF         =      F    write electronic localiz. function (ELF)
   LORBIT       =     11    0 simple, 1 ext, 2 COOP (PROOUT), +10 PAW based schemes


 Dipole corrections
   LMONO  =      F    monopole corrections only (constant potential shift)
   LDIPOL =      F    correct potential (dipole corrections)
   IDIPOL =      0    1-x, 2-y, 3-z, 4-all directions 
   EPSILON=  1.0000000 bulk dielectric constant

 Exchange correlation treatment:
   GGA     =    BO    GGA type
   LEXCH   =    42    internal setting for exchange type
   VOSKOWN=      0    Vosko Wilk Nusair interpolation
   LHFCALC =     F    Hartree Fock is set to
   LHFONE  =     F    Hartree Fock one center treatment
   AEXX    =    0.0000 exact exchange contribution

 vdW DFT:
   LUSE_VDW   =     T    switch on vdW DFT
   Zab_VDW    =-.8491    correlation parameter
   PARAM1     =0.1833
   PARAM2     =0.2200
   PARAM3     =0.0000
   -- rVV10 --
   BPARAM     = 6.3000
   CPARAM     = 0.0093

 Linear response parameters
   LEPSILON=     F    determine dielectric tensor
   LRPA    =     F    only Hartree local field effects (RPA)
   LNABLA  =     F    use nabla operator in PAW spheres
   LVEL    =     F    velocity operator in full k-point grid
   LINTERFAST=   F  fast interpolation
   KINTER  =     0    interpolate to denser k-point grid
   CSHIFT  =0.1000    complex shift for real part using Kramers Kronig
   OMEGAMAX=  -1.0    maximum frequency
   DEG_THRESHOLD= 0.2000000E-02 threshold for treating states as degnerate
   RTIME   =   -0.100 relaxation time in fs
  (WPLASMAI=    0.000 imaginary part of plasma frequency in eV, 0.658/RTIME)
   DFIELD  = 0.0000000 0.0000000 0.0000000 field for delta impulse in time

 Orbital magnetization related:
   ORBITALMAG=     F  switch on orbital magnetization
   LCHIMAG   =     F  perturbation theory with respect to B field
   DQ        =  0.001000  dq finite difference perturbation B field
   LLRAUG    =     F  two centre corrections for induced B field



--------------------------------------------------------------------------------------------------------


 conjugate gradient relaxation of ions
   using selective dynamics as specified on POSCAR
 charge density and potential will be updated during run
 spin polarized calculation
 Variant of blocked Davidson
 Davidson routine will perform the subspace rotation
 perform sub-space diagonalisation
    after iterative eigenvector-optimisation
 modified Broyden-mixing scheme, WC =      100.0
 initial mixing is a Kerker type mixing with AMIX =  0.4000 and BMIX =      1.0000
 Hartree-type preconditioning will be used
 using additional bands           19
 real space projection scheme for non local part
 use partial core corrections
 calculate Harris-corrections to forces   (improved forces if not selfconsistent)
 use gradient corrections 
 use of overlap-Matrix (Vanderbilt PP)
 Fermi weights with tetrahedron method with Bloechl corrections


--------------------------------------------------------------------------------------------------------


  energy-cutoff  :      520.00
  volume of cell :      968.84
      direct lattice vectors                 reciprocal lattice vectors
     6.907777000 -0.000000000  0.000000000     0.144764372 -0.083579742  0.000000000
     3.453888000  5.982310000  0.000000000     0.000000000  0.167159509 -0.000000000
     0.000000000  0.000000000 23.444588000    -0.000000000  0.000000000  0.042653767

  length of vectors
     6.907777000  6.907776433 23.444588000     0.167159495  0.167159509  0.042653767



 k-points in units of 2pi/SCALE and weight: Kpoints from vasprun.xml                
   0.00000000  0.00000000  0.00000000       0.040
   0.02895287 -0.01671595  0.00000000       0.240
   0.05790575 -0.03343190  0.00000000       0.240
   0.05790575  0.00000000  0.00000000       0.240
  -0.05790575  0.06686380  0.00000000       0.240

 k-points in reciprocal lattice and weights: Kpoints from vasprun.xml                
   0.00000000  0.00000000  0.00000000       0.040
   0.20000000  0.00000000  0.00000000       0.240
   0.40000000  0.00000000  0.00000000       0.240
   0.40000000  0.20000000  0.00000000       0.240
  -0.40000000  0.20000000  0.00000000       0.240

 position of ions in fractional coordinates (direct lattice) 
   0.33333300  0.33333300  0.49992500
   0.66666700  0.66666700  0.50007500
   0.00000000  0.00000000  0.44821600
   0.00000000  0.00000000  0.55178400
   0.62635700  0.00042000  0.57375200
   0.00042000  0.37322400  0.57375200
   0.37322400  0.62635700  0.57375200
   0.37364300  0.99958000  0.42624800
   0.99958000  0.62677600  0.42624800
   0.62677600  0.37364300  0.42624800

 position of ions in cartesian coordinates  (Angst):
   3.45388488  1.99410134 11.72053566
   6.90778012  3.98820866 11.72405234
   0.00000000  0.00000000 10.50823946
   0.00000000  0.00000000 12.93634854
   4.32818511  0.00251257 13.45137925
   1.29197516  2.23274167 13.45137925
   4.74151509  3.74706174 13.45137925
   6.03347989  5.97979743  9.99320875
   9.06968984  3.74956833  9.99320875
   5.62014991  2.23524826  9.99320875



--------------------------------------------------------------------------------------------------------


 k-point  1 :   0.0000 0.0000 0.0000  plane waves:   26073
 k-point  2 :   0.2000 0.0000 0.0000  plane waves:   26070
 k-point  3 :   0.4000 0.0000 0.0000  plane waves:   26086
 k-point  4 :   0.4000 0.2000 0.0000  plane waves:   26085
 k-point  5 :  -0.4000 0.2000 0.0000  plane waves:   26115

 maximum and minimum number of plane-waves per node :     26115    26070

 maximum number of plane-waves:     26115
 maximum index in each direction: 
   IXMAX=   13   IYMAX=   12   IZMAX=   43
   IXMIN=  -13   IYMIN=  -13   IZMIN=  -43


 serial   3D FFT for wavefunctions
 parallel 3D FFT for charge:
    minimum data exchange during FFTs selected (reduces bandwidth)


 total amount of memory used by VASP MPI-rank0   129818. kBytes
=======================================================================

   base      :      30000. kBytes
   nonlr-proj:       7318. kBytes
   fftplans  :      11247. kBytes
   grid      :      68332. kBytes
   one-center:        311. kBytes
   wavefun   :      12610. kBytes

     INWAV:  cpu time    0.0000: real time    0.0004
 Broyden mixing: mesh for mixing (old mesh)
   NGX = 25   NGY = 25   NGZ = 87
  (NGX  =108   NGY  =108   NGZ  =360)
  gives a total of  54375 points

 initial charge density was supplied:
 charge density of overlapping atoms calculated
 number of electron      57.0000000 magnetization      14.8000000
 keeping initial charge density in first step


--------------------------------------------------------------------------------------------------------


 Maximum index for non-local projection operator         7247
 Maximum index for augmentation-charges         2133 (set IRDMAX)


--------------------------------------------------------------------------------------------------------


 First call to EWALD:  gamma=   0.179
 Maximum number of real-space cells 4x 4x 1
 Maximum number of reciprocal cells 2x 2x 6

    FEWALD:  cpu time    0.0000: real time    0.0014


--------------------------------------- Iteration      1(   1)  ---------------------------------------


vdW kernel read from vdw_kernel.bindat
  0.0000  0.2424  0.5071  0.7962  1.1119  1.4567  1.8333  2.2446  2.6937  3.1842
  3.7199  4.3049  4.9438  5.6415  6.4036  7.2358  8.1446  9.1372 10.2212 11.4050
 12.6979 14.1099 15.6519 17.3360 19.1751 21.1837 23.3773 25.7729 28.3892 31.2465
 34.3669 37.7748 41.4965 45.5611 50.0000

    POTLOK:  cpu time   53.0440: real time   53.4382
    SETDIJ:  cpu time    0.0440: real time    0.0470
     EDDAV:  cpu time   22.4600: real time   22.7007
 BZINTS: Fermi energy:  5.396665; 57.000000 electrons
         Band energy: -20.987766;  BLOECHL correction: -0.027932
       DOS:  cpu time    0.0040: real time    0.0047
    --------------------------------------------
      LOOP:  cpu time   75.5520: real time   76.1908

 eigenvalue-minimisations  :   960
 total energy-change (2. order) : 0.4074819E+03  (-0.1659566E+04)
 number of electron      57.0000000 magnetization      14.8000000
 augmentation part       57.0000000 magnetization      14.8000000

 Free energy of the ion-electron system (eV)
  ---------------------------------------------------
  alpha Z        PSCENC =        32.59752184
  Ewald energy   TEWEN  =      6221.61188061
  -Hartree energ DENC   =     -8315.35165852
  -exchange      EXHF   =         0.00000000
  -V(xc)+E(xc)   XCENC  =       -51.41176430
  PAW double counting   =      1173.03776633    -1020.98751441
  entropy T*S    EENTRO =         0.00000000
  eigenvalues    EBANDS =       -20.98776590
  atomic energy  EATOM  =      2388.97348331
  Solvation  Ediel_sol  =         0.00000000
  ---------------------------------------------------
  free energy    TOTEN  =       407.48194896 eV

  energy without entropy =      407.48194896  energy(sigma->0) =      407.48194896


--------------------------------------------------------------------------------------------------------




--------------------------------------- Iteration      1(   2)  ---------------------------------------


     EDDAV:  cpu time   26.3600: real time   27.1739
 BZINTS: Fermi energy: -1.106738; 57.000000 electrons
         Band energy:-398.042909;  BLOECHL correction: -0.092275
       DOS:  cpu time    0.0040: real time    0.0050
    --------------------------------------------
      LOOP:  cpu time   26.3640: real time   27.1789

 eigenvalue-minimisations  :  1168
 total energy-change (2. order) :-0.3770551E+03  (-0.3459036E+03)
 number of electron      57.0000000 magnetization      14.8000000
 augmentation part       57.0000000 magnetization      14.8000000

 Free energy of the ion-electron system (eV)
  ---------------------------------------------------
  alpha Z        PSCENC =        32.59752184
  Ewald energy   TEWEN  =      6221.61188061
  -Hartree energ DENC   =     -8315.35165852
  -exchange      EXHF   =         0.00000000
  -V(xc)+E(xc)   XCENC  =       -51.41176430
  PAW double counting   =      1173.03776633    -1020.98751441
  entropy T*S    EENTRO =         0.00000000
  eigenvalues    EBANDS =      -398.04290922
  atomic energy  EATOM  =      2388.97348331
  Solvation  Ediel_sol  =         0.00000000
  ---------------------------------------------------
  free energy    TOTEN  =        30.42680563 eV

  energy without entropy =       30.42680563  energy(sigma->0) =       30.42680563


--------------------------------------------------------------------------------------------------------




--------------------------------------- Iteration      1(   3)  ---------------------------------------


     EDDAV:  cpu time   30.9240: real time   31.2165
 BZINTS: Fermi energy: -2.778578; 57.000000 electrons
         Band energy:-473.876727;  BLOECHL correction: -0.004748
       DOS:  cpu time    0.0040: real time    0.0052
    --------------------------------------------
      LOOP:  cpu time   30.9280: real time   31.2216

 eigenvalue-minimisations  :  1360
 total energy-change (2. order) :-0.7583382E+02  (-0.7299850E+02)
 number of electron      57.0000000 magnetization      14.8000000
 augmentation part       57.0000000 magnetization      14.8000000

 Free energy of the ion-electron system (eV)
  ---------------------------------------------------
  alpha Z        PSCENC =        32.59752184
  Ewald energy   TEWEN  =      6221.61188061
  -Hartree energ DENC   =     -8315.35165852
  -exchange      EXHF   =         0.00000000
  -V(xc)+E(xc)   XCENC  =       -51.41176430
  PAW double counting   =      1173.03776633    -1020.98751441
  entropy T*S    EENTRO =         0.00000000
  eigenvalues    EBANDS =      -473.87672740
  atomic energy  EATOM  =      2388.97348331
  Solvation  Ediel_sol  =         0.00000000
  ---------------------------------------------------
  free energy    TOTEN  =       -45.40701254 eV

  energy without entropy =      -45.40701254  energy(sigma->0) =      -45.40701254


--------------------------------------------------------------------------------------------------------




--------------------------------------- Iteration      1(   4)  ---------------------------------------


     EDDAV:  cpu time   29.7680: real time   29.8349
 BZINTS: Fermi energy: -2.816670; 57.000000 electrons
         Band energy:-477.658961;  BLOECHL correction: -0.013081
       DOS:  cpu time    0.0080: real time    0.0055
    --------------------------------------------
      LOOP:  cpu time   29.7760: real time   29.8404

 eigenvalue-minimisations  :  1296
 total energy-change (2. order) :-0.3782233E+01  (-0.3677219E+01)
 number of electron      57.0000000 magnetization      14.8000000
 augmentation part       57.0000000 magnetization      14.8000000

 Free energy of the ion-electron system (eV)
  ---------------------------------------------------
  alpha Z        PSCENC =        32.59752184
  Ewald energy   TEWEN  =      6221.61188061
  -Hartree energ DENC   =     -8315.35165852
  -exchange      EXHF   =         0.00000000
  -V(xc)+E(xc)   XCENC  =       -51.41176430
  PAW double counting   =      1173.03776633    -1020.98751441
  entropy T*S    EENTRO =         0.00000000
  eigenvalues    EBANDS =      -477.65896069
  atomic energy  EATOM  =      2388.97348331
  Solvation  Ediel_sol  =         0.00000000
  ---------------------------------------------------
  free energy    TOTEN  =       -49.18924583 eV

  energy without entropy =      -49.18924583  energy(sigma->0) =      -49.18924583


--------------------------------------------------------------------------------------------------------




--------------------------------------- Iteration      1(   5)  ---------------------------------------


     EDDAV:  cpu time   29.9240: real time   30.1450
 BZINTS: Fermi energy: -2.817773; 57.000000 electrons
         Band energy:-477.767427;  BLOECHL correction: -0.013010
       DOS:  cpu time    0.0040: real time    0.0059
    CHARGE:  cpu time    1.9520: real time    1.9549
    MIXING:  cpu time    0.0400: real time    0.0399
    --------------------------------------------
      LOOP:  cpu time   31.9200: real time   32.1457

 eigenvalue-minimisations  :  1312
 total energy-change (2. order) :-0.1084660E+00  (-0.1080814E+00)
 number of electron      56.9999994 magnetization      13.6937122
 augmentation part       -5.8114580 magnetization      11.6556539

 Broyden mixing:
  rms(total) = 0.24197E+01    rms(broyden)= 0.24197E+01
  rms(prec ) = 0.26127E+01
  weight for this iteration     100.00

 Free energy of the ion-electron system (eV)
  ---------------------------------------------------
  alpha Z        PSCENC =        32.59752184
  Ewald energy   TEWEN  =      6221.61188061
  -Hartree energ DENC   =     -8315.35165852
  -exchange      EXHF   =         0.00000000
  -V(xc)+E(xc)   XCENC  =       -51.41176430
  PAW double counting   =      1173.03776633    -1020.98751441
  entropy T*S    EENTRO =         0.00000000
  eigenvalues    EBANDS =      -477.76742673
  atomic energy  EATOM  =      2388.97348331
  Solvation  Ediel_sol  =         0.00000000
  ---------------------------------------------------
  free energy    TOTEN  =       -49.29771187 eV

  energy without entropy =      -49.29771187  energy(sigma->0) =      -49.29771187


--------------------------------------------------------------------------------------------------------




--------------------------------------- Iteration      1(   6)  ---------------------------------------


    POTLOK:  cpu time   52.1000: real time   52.6082
    SETDIJ:  cpu time    0.0320: real time    0.0370
     EDDAV:  cpu time   30.4840: real time   31.5706
 BZINTS: Fermi energy: -4.978675; 57.000000 electrons
         Band energy:-564.229337;  BLOECHL correction: -0.027146
       DOS:  cpu time    0.0080: real time    0.0069
    CHARGE:  cpu time    1.7800: real time    1.9656
    MIXING:  cpu time    0.0320: real time    0.0409
    --------------------------------------------
      LOOP:  cpu time   84.4360: real time   86.2292

 eigenvalue-minimisations  :  1392
 total energy-change (2. order) :-0.4271245E+02  (-0.1932498E+02)
 number of electron      56.9999992 magnetization      13.4107503
 augmentation part        6.9843869 magnetization       9.9057898

 Broyden mixing:
  rms(total) = 0.57945E+01    rms(broyden)= 0.57945E+01
  rms(prec ) = 0.65145E+01
  weight for this iteration     100.00

 eigenvalues of (default mixing * dielectric matrix)
  average eigenvalue GAMMA=   0.2849
  0.2849

 Free energy of the ion-electron system (eV)
  ---------------------------------------------------
  alpha Z        PSCENC =        32.59752184
  Ewald energy   TEWEN  =      6221.61188061
  -Hartree energ DENC   =     -8278.00715740
  -exchange      EXHF   =         0.00000000
  -V(xc)+E(xc)   XCENC  =       -53.21516358
  PAW double counting   =      1128.29549283     -968.03688296
  entropy T*S    EENTRO =         0.00000000
  eigenvalues    EBANDS =      -564.22933707
  atomic energy  EATOM  =      2388.97348331
  Solvation  Ediel_sol  =         0.00000000
  ---------------------------------------------------
  free energy    TOTEN  =       -92.01016243 eV

  energy without entropy =      -92.01016243  energy(sigma->0) =      -92.01016243


--------------------------------------------------------------------------------------------------------




--------------------------------------- Iteration      1(   7)  ---------------------------------------


    POTLOK:  cpu time   51.3760: real time   52.1116
    SETDIJ:  cpu time    0.0400: real time    0.0407
     EDDAV:  cpu time   30.4000: real time   31.1237
 BZINTS: Fermi energy: -3.480504; 57.000000 electrons
         Band energy:-474.843705;  BLOECHL correction: -0.002558
       DOS:  cpu time    0.0040: real time    0.0066
    CHARGE:  cpu time    1.9560: real time    1.9588
    MIXING:  cpu time    0.0440: real time    0.0440
    --------------------------------------------
      LOOP:  cpu time   83.8200: real time   85.2855

 eigenvalue-minimisations  :  1360
 total energy-change (2. order) : 0.4716776E+02  (-0.1702428E+02)
 number of electron      56.9999994 magnetization      12.9468712
 augmentation part       -4.1965639 magnetization      10.8278078

 Broyden mixing:
  rms(total) = 0.19051E+01    rms(broyden)= 0.18997E+01
  rms(prec ) = 0.19931E+01
  weight for this iteration     100.00

 eigenvalues of (default mixing * dielectric matrix)
  average eigenvalue GAMMA=   0.3850
  0.5649  0.2050

 Free energy of the ion-electron system (eV)
  ---------------------------------------------------
  alpha Z        PSCENC =        32.59752184
  Ewald energy   TEWEN  =      6221.61188061
  -Hartree energ DENC   =     -8311.46358310
  -exchange      EXHF   =         0.00000000
  -V(xc)+E(xc)   XCENC  =       -53.93212811
  PAW double counting   =      1192.37709323    -1040.16296944
  entropy T*S    EENTRO =         0.00000000
  eigenvalues    EBANDS =      -474.84370466
  atomic energy  EATOM  =      2388.97348331
  Solvation  Ediel_sol  =         0.00000000
  ---------------------------------------------------
  free energy    TOTEN  =       -44.84240631 eV

  energy without entropy =      -44.84240631  energy(sigma->0) =      -44.84240631


--------------------------------------------------------------------------------------------------------




--------------------------------------- Iteration      1(   8)  ---------------------------------------


    POTLOK:  cpu time   51.4080: real time   51.8245
    SETDIJ:  cpu time    0.0480: real time    0.0498
     EDDAV:  cpu time   32.1120: real time   32.8830
 BZINTS: Fermi energy: -4.065998; 57.000000 electrons
         Band energy:-733.165600;  BLOECHL correction:  0.000000
       DOS:  cpu time    0.0040: real time    0.0016
    CHARGE:  cpu time    1.9120: real time    1.9802
    MIXING:  cpu time    0.0400: real time    0.0413
    --------------------------------------------
      LOOP:  cpu time   85.5240: real time   86.7804

 eigenvalue-minimisations  :  1440
 total energy-change (2. order) :-0.2495897E+03  (-0.2923118E+03)
 number of electron      56.9999994 magnetization      12.8683393
 augmentation part       -3.1748170 magnetization       9.5005879

 Broyden mixing:
  rms(total) = 0.20805E+01    rms(broyden)= 0.20595E+01
  rms(prec ) = 0.21068E+01
  weight for this iteration     100.00

 eigenvalues of (default mixing * dielectric matrix)
  average eigenvalue GAMMA=   0.3002
  0.5249  0.1879  0.1879

 Free energy of the ion-electron system (eV)
  ---------------------------------------------------
  alpha Z        PSCENC =        32.59752184
  Ewald energy   TEWEN  =      6221.61188061
  -Hartree energ DENC   =     -8303.62976774
  -exchange      EXHF   =         0.00000000
  -V(xc)+E(xc)   XCENC  =       -53.36558890
  PAW double counting   =      1183.87908057    -1031.33307068
  entropy T*S    EENTRO =         0.00000000
  eigenvalues    EBANDS =      -733.16560043
  atomic energy  EATOM  =      2388.97348331
  Solvation  Ediel_sol  =         0.00000000
  ---------------------------------------------------
  free energy    TOTEN  =      -294.43206142 eV

  energy without entropy =     -294.43206142  energy(sigma->0) =     -294.43206142


--------------------------------------------------------------------------------------------------------




--------------------------------------- Iteration      1(   9)  ---------------------------------------


    POTLOK:  cpu time   50.8920: real time   52.0912
    SETDIJ:  cpu time    0.0440: real time    0.0472
     EDDAV:  cpu time   23.8920: real time   25.2989
 BZINTS: Fermi energy: -3.734624; 57.000000 electrons
         Band energy:-482.666020;  BLOECHL correction:  0.000000
       DOS:  cpu time    0.0040: real time    0.0014
    CHARGE:  cpu time    1.9600: real time    1.9667
    MIXING:  cpu time    0.0440: real time    0.0427
    --------------------------------------------
      LOOP:  cpu time   76.8360: real time   79.4480

 eigenvalue-minimisations  :  1088
 total energy-change (2. order) : 0.2525427E+03  (-0.1050294E+03)
 number of electron      56.9999993 magnetization      12.6886951
 augmentation part       -3.1656820 magnetization       9.4074895

 Broyden mixing:
  rms(total) = 0.10977E+01    rms(broyden)= 0.10757E+01
  rms(prec ) = 0.10863E+01
  weight for this iteration     100.00

 eigenvalues of (default mixing * dielectric matrix)
  average eigenvalue GAMMA=   0.2967
  0.3590  0.3590  0.2975  0.1715

 Free energy of the ion-electron system (eV)
  ---------------------------------------------------
  alpha Z        PSCENC =        32.59752184
  Ewald energy   TEWEN  =      6221.61188061
  -Hartree energ DENC   =     -8301.98915038
  -exchange      EXHF   =         0.00000000
  -V(xc)+E(xc)   XCENC  =       -53.01653870
  PAW double counting   =      1183.85752666    -1031.25805600
  entropy T*S    EENTRO =         0.00000000
  eigenvalues    EBANDS =      -482.66601968
  atomic energy  EATOM  =      2388.97348331
  Solvation  Ediel_sol  =         0.00000000
  ---------------------------------------------------
  free energy    TOTEN  =       -41.88935235 eV

  energy without entropy =      -41.88935235  energy(sigma->0) =      -41.88935235


--------------------------------------------------------------------------------------------------------




--------------------------------------- Iteration      1(  10)  ---------------------------------------


    POTLOK:  cpu time   50.8320: real time   51.1710
    SETDIJ:  cpu time    0.0440: real time    0.0461
     EDDAV:  cpu time   26.1040: real time   26.2951
 BZINTS: Fermi energy: -3.692735; 57.000000 electrons
         Band energy:-480.703330;  BLOECHL correction:  0.000000
       DOS:  cpu time    0.0000: real time    0.0033
    CHARGE:  cpu time    1.9080: real time    1.9106
    MIXING:  cpu time    0.0440: real time    0.0433
    --------------------------------------------
      LOOP:  cpu time   78.9320: real time   79.4694

 eigenvalue-minimisations  :  1152
 total energy-change (2. order) :-0.1740855E+01  (-0.3412889E-01)
 number of electron      56.9999993 magnetization      12.1900303
 augmentation part       -3.0980484 magnetization       9.0631739

 Broyden mixing:
  rms(total) = 0.73993E+00    rms(broyden)= 0.73863E+00
  rms(prec ) = 0.74961E+00
  weight for this iteration     100.00

 eigenvalues of (default mixing * dielectric matrix)
  average eigenvalue GAMMA=   0.4634
  0.7351  0.7351  0.4500  0.1985  0.1985

 Free energy of the ion-electron system (eV)
  ---------------------------------------------------
  alpha Z        PSCENC =        32.59752184
  Ewald energy   TEWEN  =      6221.61188061
  -Hartree energ DENC   =     -8304.98919108
  -exchange      EXHF   =         0.00000000
  -V(xc)+E(xc)   XCENC  =       -53.56021325
  PAW double counting   =      1189.25278903    -1036.81314790
  entropy T*S    EENTRO =         0.00000000
  eigenvalues    EBANDS =      -480.70333021
  atomic energy  EATOM  =      2388.97348331
  Solvation  Ediel_sol  =         0.00000000
  ---------------------------------------------------
  free energy    TOTEN  =       -43.63020765 eV

  energy without entropy =      -43.63020765  energy(sigma->0) =      -43.63020765


--------------------------------------------------------------------------------------------------------




--------------------------------------- Iteration      1(  11)  ---------------------------------------


    POTLOK:  cpu time   50.5280: real time   50.8029
    SETDIJ:  cpu time    0.1000: real time    0.1006
     EDDAV:  cpu time   32.9560: real time   33.2553
 BZINTS: Fermi energy: -3.639872; 57.000000 electrons
         Band energy:-476.727730;  BLOECHL correction:  0.000000
       DOS:  cpu time    0.0000: real time    0.0033
    CHARGE:  cpu time    1.9480: real time    1.9508
    MIXING:  cpu time    0.0480: real time    0.0468
    --------------------------------------------
      LOOP:  cpu time   85.5800: real time   86.1597

 eigenvalue-minimisations  :  1488
 total energy-change (2. order) :-0.7721324E+00  (-0.4036283E-01)
 number of electron      56.9999993 magnetization      10.6923469
 augmentation part       -2.9558596 magnetization       7.8459009

 Broyden mixing:
  rms(total) = 0.44408E+00    rms(broyden)= 0.44399E+00
  rms(prec ) = 0.45210E+00
  weight for this iteration     100.00

 eigenvalues of (default mixing * dielectric matrix)
  average eigenvalue GAMMA=   0.6627
  1.3336  0.7900  0.7900  0.6618  0.2033  0.1975

 Free energy of the ion-electron system (eV)
  ---------------------------------------------------
  alpha Z        PSCENC =        32.59752184
  Ewald energy   TEWEN  =      6221.61188061
  -Hartree energ DENC   =     -8310.43758439
  -exchange      EXHF   =         0.00000000
  -V(xc)+E(xc)   XCENC  =       -52.52507923
  PAW double counting   =      1198.70046588    -1046.59529781
  entropy T*S    EENTRO =         0.00000000
  eigenvalues    EBANDS =      -476.72773026
  atomic energy  EATOM  =      2388.97348331
  Solvation  Ediel_sol  =         0.00000000
  ---------------------------------------------------
  free energy    TOTEN  =       -44.40234005 eV

  energy without entropy =      -44.40234005  energy(sigma->0) =      -44.40234005


--------------------------------------------------------------------------------------------------------




--------------------------------------- Iteration      1(  12)  ---------------------------------------


    POTLOK:  cpu time   50.6320: real time   50.8095
    SETDIJ:  cpu time    0.0520: real time    0.0525
     EDDAV:  cpu time   33.7560: real time   34.0032
 BZINTS: Fermi energy: -3.545961; 57.000000 electrons
         Band energy:-471.246243;  BLOECHL correction:  0.000000
       DOS:  cpu time    0.0040: real time    0.0035
    CHARGE:  cpu time    1.8960: real time    1.9117
    MIXING:  cpu time    0.0440: real time    0.0439
    --------------------------------------------
      LOOP:  cpu time   86.3840: real time   86.8243

 eigenvalue-minimisations  :  1520
 total energy-change (2. order) :-0.6575755E+00  (-0.9231047E-01)
 number of electron      56.9999993 magnetization      10.0290007
 augmentation part       -2.6221419 magnetization       7.6799163

 Broyden mixing:
  rms(total) = 0.34959E+00    rms(broyden)= 0.34958E+00
  rms(prec ) = 0.35219E+00
  weight for this iteration     100.00

 eigenvalues of (default mixing * dielectric matrix)
  average eigenvalue GAMMA=   0.7903
  2.1840  0.8429  0.8429  0.6671  0.5945  0.2019  0.1988

 Free energy of the ion-electron system (eV)
  ---------------------------------------------------
  alpha Z        PSCENC =        32.59752184
  Ewald energy   TEWEN  =      6221.61188061
  -Hartree energ DENC   =     -8318.55820275
  -exchange      EXHF   =         0.00000000
  -V(xc)+E(xc)   XCENC  =       -49.74610356
  PAW double counting   =      1210.71502202    -1059.40727374
  entropy T*S    EENTRO =         0.00000000
  eigenvalues    EBANDS =      -471.24624328
  atomic energy  EATOM  =      2388.97348331
  Solvation  Ediel_sol  =         0.00000000
  ---------------------------------------------------
  free energy    TOTEN  =       -45.05991555 eV

  energy without entropy =      -45.05991555  energy(sigma->0) =      -45.05991555


--------------------------------------------------------------------------------------------------------




--------------------------------------- Iteration      1(  13)  ---------------------------------------


    POTLOK:  cpu time   50.4800: real time   51.4040
    SETDIJ:  cpu time    0.0520: real time    0.0500
     EDDAV:  cpu time   27.5680: real time   27.6936
 BZINTS: Fermi energy: -3.540161; 57.000000 electrons
         Band energy:-472.350336;  BLOECHL correction:  0.000000
       DOS:  cpu time    0.0000: real time    0.0035
    CHARGE:  cpu time    1.9200: real time    1.9255
    MIXING:  cpu time    0.0440: real time    0.0451
    --------------------------------------------
      LOOP:  cpu time   80.0640: real time   81.1216

 eigenvalue-minimisations  :  1216
 total energy-change (2. order) :-0.2068920E+00  (-0.3434867E-01)
 number of electron      56.9999993 magnetization       9.1774021
 augmentation part       -2.5900652 magnetization       6.8657537

 Broyden mixing:
  rms(total) = 0.28148E+00    rms(broyden)= 0.28148E+00
  rms(prec ) = 0.28465E+00
  weight for this iteration     100.00

 eigenvalues of (default mixing * dielectric matrix)
  average eigenvalue GAMMA=   0.9115
  2.8827  1.0115  1.0115  0.1988  0.2019  0.6901  0.6901  0.6049

 Free energy of the ion-electron system (eV)
  ---------------------------------------------------
  alpha Z        PSCENC =        32.59752184
  Ewald energy   TEWEN  =      6221.61188061
  -Hartree energ DENC   =     -8317.44055913
  -exchange      EXHF   =         0.00000000
  -V(xc)+E(xc)   XCENC  =       -49.96471762
  PAW double counting   =      1208.36619779    -1057.06027826
  entropy T*S    EENTRO =         0.00000000
  eigenvalues    EBANDS =      -472.35033611
  atomic energy  EATOM  =      2388.97348331
  Solvation  Ediel_sol  =         0.00000000
  ---------------------------------------------------
  free energy    TOTEN  =       -45.26680756 eV

  energy without entropy =      -45.26680756  energy(sigma->0) =      -45.26680756


--------------------------------------------------------------------------------------------------------




--------------------------------------- Iteration      1(  14)  ---------------------------------------


    POTLOK:  cpu time   50.8800: real time   51.0600
    SETDIJ:  cpu time    0.0480: real time    0.0501
     EDDAV:  cpu time   25.1480: real time   25.3805
 BZINTS: Fermi energy: -3.588366; 56.989538 electrons
         Band energy:-474.248607;  BLOECHL correction: -0.000357
       DOS:  cpu time    0.0080: real time    0.0092
    CHARGE:  cpu time    1.9560: real time    1.9593
    MIXING:  cpu time    0.0440: real time    0.0462
    --------------------------------------------
      LOOP:  cpu time   78.0840: real time   78.5053

 eigenvalue-minimisations  :  1104
 total energy-change (2. order) :-0.7941172E-01  (-0.5920317E-01)
 number of electron      56.9895368 magnetization       8.4730716
 augmentation part       -2.5948654 magnetization       6.1450663

 Broyden mixing:
  rms(total) = 0.21150E+00    rms(broyden)= 0.21150E+00
  rms(prec ) = 0.21670E+00
  weight for this iteration     100.00

 eigenvalues of (default mixing * dielectric matrix)
  average eigenvalue GAMMA=   0.9710
  3.6591  1.0933  1.0933  0.7538  0.7538  0.1988  0.2020  0.5882  0.3966

 Free energy of the ion-electron system (eV)
  ---------------------------------------------------
  alpha Z        PSCENC =        32.59752184
  Ewald energy   TEWEN  =      6221.61188061
  -Hartree energ DENC   =     -8315.09037491
  -exchange      EXHF   =         0.00000000
  -V(xc)+E(xc)   XCENC  =       -50.49583241
  PAW double counting   =      1203.58749344    -1052.28178436
  entropy T*S    EENTRO =         0.00000000
  eigenvalues    EBANDS =      -474.24860681
  atomic energy  EATOM  =      2388.97348331
  Solvation  Ediel_sol  =         0.00000000
  ---------------------------------------------------
  free energy    TOTEN  =       -45.34621928 eV

  energy without entropy =      -45.34621928  energy(sigma->0) =      -45.34621928


--------------------------------------------------------------------------------------------------------




--------------------------------------- Iteration      1(  15)  ---------------------------------------


    POTLOK:  cpu time   50.6840: real time   51.0017
    SETDIJ:  cpu time    0.0480: real time    0.0471
     EDDAV:  cpu time   29.5240: real time   29.6283
 BZINTS: Fermi energy: -3.610261; 57.000000 electrons
         Band energy:-475.742454;  BLOECHL correction: -0.008934
       DOS:  cpu time    0.0080: real time    0.0067
    CHARGE:  cpu time    1.9560: real time    1.9594
    MIXING:  cpu time    0.0440: real time    0.0469
    --------------------------------------------
      LOOP:  cpu time   82.2640: real time   82.6900

 eigenvalue-minimisations  :  1312
 total energy-change (2. order) :-0.1103872E+00  (-0.6384961E-02)
 number of electron      56.9999993 magnetization       7.5043411
 augmentation part       -2.6176910 magnetization       5.2792487

 Broyden mixing:
  rms(total) = 0.15796E+00    rms(broyden)= 0.15796E+00
  rms(prec ) = 0.16195E+00
  weight for this iteration     100.00

 eigenvalues of (default mixing * dielectric matrix)
  average eigenvalue GAMMA=   1.1291
  5.1186  1.2932  1.2932  0.8360  0.8360  0.5926  0.5926  0.1988  0.2020  0.3284

 Free energy of the ion-electron system (eV)
  ---------------------------------------------------
  alpha Z        PSCENC =        32.59752184
  Ewald energy   TEWEN  =      6221.61188061
  -Hartree energ DENC   =     -8313.38808792
  -exchange      EXHF   =         0.00000000
  -V(xc)+E(xc)   XCENC  =       -50.83997936
  PAW double counting   =      1200.61572327    -1049.28469454
  entropy T*S    EENTRO =         0.00000000
  eigenvalues    EBANDS =      -475.74245373
  atomic energy  EATOM  =      2388.97348331
  Solvation  Ediel_sol  =         0.00000000
  ---------------------------------------------------
  free energy    TOTEN  =       -45.45660652 eV

  energy without entropy =      -45.45660652  energy(sigma->0) =      -45.45660652


--------------------------------------------------------------------------------------------------------




--------------------------------------- Iteration      1(  16)  ---------------------------------------


    POTLOK:  cpu time   50.6240: real time   50.9883
    SETDIJ:  cpu time    0.0520: real time    0.0488
     EDDAV:  cpu time   29.8160: real time   29.9691
 BZINTS: Fermi energy: -3.610686; 57.000000 electrons
         Band energy:-477.032737;  BLOECHL correction: -0.013584
       DOS:  cpu time    0.0040: real time    0.0070
    CHARGE:  cpu time    1.9440: real time    1.9464
    MIXING:  cpu time    0.0520: real time    0.0521
    --------------------------------------------
      LOOP:  cpu time   82.4920: real time   83.0117

 eigenvalue-minimisations  :  1328
 total energy-change (2. order) :-0.2497122E-01  (-0.5362438E-02)
 number of electron      56.9999993 magnetization       6.7898202
 augmentation part       -2.6549541 magnetization       4.7427202

 Broyden mixing:
  rms(total) = 0.11863E+00    rms(broyden)= 0.11863E+00
  rms(prec ) = 0.12179E+00
  weight for this iteration     100.00

 eigenvalues of (default mixing * dielectric matrix)
  average eigenvalue GAMMA=   1.3041
  6.8653  1.5059  1.5059  0.9118  0.9118  0.1988  0.2020  0.6744  0.6744  0.5732
  0.3220

 Free energy of the ion-electron system (eV)
  ---------------------------------------------------
  alpha Z        PSCENC =        32.59752184
  Ewald energy   TEWEN  =      6221.61188061
  -Hartree energ DENC   =     -8311.84182440
  -exchange      EXHF   =         0.00000000
  -V(xc)+E(xc)   XCENC  =       -51.19393749
  PAW double counting   =      1198.92513699    -1047.52110152
  entropy T*S    EENTRO =         0.00000000
  eigenvalues    EBANDS =      -477.03273709
  atomic energy  EATOM  =      2388.97348331
  Solvation  Ediel_sol  =         0.00000000
  ---------------------------------------------------
  free energy    TOTEN  =       -45.48157775 eV

  energy without entropy =      -45.48157775  energy(sigma->0) =      -45.48157775


--------------------------------------------------------------------------------------------------------




--------------------------------------- Iteration      1(  17)  ---------------------------------------


    POTLOK:  cpu time   50.7600: real time   50.8502
    SETDIJ:  cpu time    0.0480: real time    0.0478
     EDDAV:  cpu time   25.2520: real time   25.3647
 BZINTS: Fermi energy: -3.594924; 57.000000 electrons
         Band energy:-477.488727;  BLOECHL correction: -0.017544
       DOS:  cpu time    0.0040: real time    0.0068
    CHARGE:  cpu time    1.9280: real time    1.9305
    MIXING:  cpu time    0.0480: real time    0.0485
    --------------------------------------------
      LOOP:  cpu time   78.0400: real time   78.2484

 eigenvalue-minimisations  :  1104
 total energy-change (2. order) :-0.1960402E-01  (-0.2886895E-02)
 number of electron      56.9999993 magnetization       6.3097123
 augmentation part       -2.6773571 magnetization       4.5519175

 Broyden mixing:
  rms(total) = 0.10445E+00    rms(broyden)= 0.10445E+00
  rms(prec ) = 0.10753E+00
  weight for this iteration     100.00

 eigenvalues of (default mixing * dielectric matrix)
  average eigenvalue GAMMA=   1.5040
  8.6224  2.0332  2.0332  0.9475  0.9475  0.7809  0.7809  0.5916  0.5916  0.1988
  0.2020  0.3186

 Free energy of the ion-electron system (eV)
  ---------------------------------------------------
  alpha Z        PSCENC =        32.59752184
  Ewald energy   TEWEN  =      6221.61188061
  -Hartree energ DENC   =     -8311.13532771
  -exchange      EXHF   =         0.00000000
  -V(xc)+E(xc)   XCENC  =       -51.51196713
  PAW double counting   =      1198.78835484    -1047.33640030
  entropy T*S    EENTRO =         0.00000000
  eigenvalues    EBANDS =      -477.48872723
  atomic energy  EATOM  =      2388.97348331
  Solvation  Ediel_sol  =         0.00000000
  ---------------------------------------------------
  free energy    TOTEN  =       -45.50118177 eV

  energy without entropy =      -45.50118177  energy(sigma->0) =      -45.50118177


--------------------------------------------------------------------------------------------------------




--------------------------------------- Iteration      1(  18)  ---------------------------------------


    POTLOK:  cpu time   50.9160: real time   51.0692
    SETDIJ:  cpu time    0.0640: real time    0.0647
     EDDAV:  cpu time   26.1160: real time   26.2513
 BZINTS: Fermi energy: -3.566989; 57.000000 electrons
         Band energy:-477.154015;  BLOECHL correction: -0.014907
       DOS:  cpu time    0.0040: real time    0.0070
    CHARGE:  cpu time    1.9360: real time    1.9365
    MIXING:  cpu time    0.0520: real time    0.0497
    --------------------------------------------
      LOOP:  cpu time   79.0880: real time   79.3786

 eigenvalue-minimisations  :  1136
 total energy-change (2. order) :-0.4990544E-01  (-0.2397206E-02)
 number of electron      56.9999993 magnetization       5.9517323
 augmentation part       -2.6864692 magnetization       4.5597533

 Broyden mixing:
  rms(total) = 0.75344E-01    rms(broyden)= 0.75344E-01
  rms(prec ) = 0.78026E-01
  weight for this iteration     100.00

 eigenvalues of (default mixing * dielectric matrix)
  average eigenvalue GAMMA=   1.6721
 10.4216  2.5029  2.5029  0.9998  0.9998  0.8683  0.8683  0.1988  0.2020  0.6371
  0.6371  0.5803  0.3183

 Free energy of the ion-electron system (eV)
  ---------------------------------------------------
  alpha Z        PSCENC =        32.59752184
  Ewald energy   TEWEN  =      6221.61188061
  -Hartree energ DENC   =     -8311.47007472
  -exchange      EXHF   =         0.00000000
  -V(xc)+E(xc)   XCENC  =       -51.61188037
  PAW double counting   =      1200.24133916    -1048.73934241
  entropy T*S    EENTRO =         0.00000000
  eigenvalues    EBANDS =      -477.15401463
  atomic energy  EATOM  =      2388.97348331
  Solvation  Ediel_sol  =         0.00000000
  ---------------------------------------------------
  free energy    TOTEN  =       -45.55108721 eV

  energy without entropy =      -45.55108721  energy(sigma->0) =      -45.55108721


--------------------------------------------------------------------------------------------------------




--------------------------------------- Iteration      1(  19)  ---------------------------------------


    POTLOK:  cpu time   51.1920: real time   51.3190
    SETDIJ:  cpu time    0.0480: real time    0.0475
     EDDAV:  cpu time   27.6280: real time   27.6470
 BZINTS: Fermi energy: -3.533014; 57.000000 electrons
         Band energy:-476.834044;  BLOECHL correction: -0.014941
       DOS:  cpu time    0.0040: real time    0.0069
    CHARGE:  cpu time    1.9440: real time    1.9436
    MIXING:  cpu time    0.0480: real time    0.0505
    --------------------------------------------
      LOOP:  cpu time   80.8680: real time   81.0144

 eigenvalue-minimisations  :  1216
 total energy-change (2. order) :-0.3678751E-01  (-0.1678658E-02)
 number of electron      56.9999993 magnetization       5.6266827
 augmentation part       -2.6747143 magnetization       4.5072984

 Broyden mixing:
  rms(total) = 0.53384E-01    rms(broyden)= 0.53384E-01
  rms(prec ) = 0.55679E-01
  weight for this iteration     100.00

 eigenvalues of (default mixing * dielectric matrix)
  average eigenvalue GAMMA=   1.8875
 13.3021  2.8010  2.8010  1.3097  0.9220  0.9220  0.8915  0.8915  0.1988  0.2020
  0.6386  0.6386  0.5876  0.3182

 Free energy of the ion-electron system (eV)
  ---------------------------------------------------
  alpha Z        PSCENC =        32.59752184
  Ewald energy   TEWEN  =      6221.61188061
  -Hartree energ DENC   =     -8311.81342142
  -exchange      EXHF   =         0.00000000
  -V(xc)+E(xc)   XCENC  =       -51.65039543
  PAW double counting   =      1200.82583621    -1049.29873553
  entropy T*S    EENTRO =         0.00000000
  eigenvalues    EBANDS =      -476.83404431
  atomic energy  EATOM  =      2388.97348331
  Solvation  Ediel_sol  =         0.00000000
  ---------------------------------------------------
  free energy    TOTEN  =       -45.58787472 eV

  energy without entropy =      -45.58787472  energy(sigma->0) =      -45.58787472


--------------------------------------------------------------------------------------------------------




--------------------------------------- Iteration      1(  20)  ---------------------------------------


    POTLOK:  cpu time   50.9560: real time   50.9770
    SETDIJ:  cpu time    0.0480: real time    0.0469
     EDDAV:  cpu time   25.5080: real time   25.6299
 BZINTS: Fermi energy: -3.505187; 57.000000 electrons
         Band energy:-476.347533;  BLOECHL correction: -0.014478
       DOS:  cpu time    0.0080: real time    0.0052
    CHARGE:  cpu time    1.9280: real time    1.9353
    MIXING:  cpu time    0.0520: real time    0.0523
    --------------------------------------------
      LOOP:  cpu time   78.4960: real time   78.6466

 eigenvalue-minimisations  :  1120
 total energy-change (2. order) :-0.2575462E-01  (-0.1558909E-02)
 number of electron      56.9999993 magnetization       5.5015489
 augmentation part       -2.6885670 magnetization       4.6366422

 Broyden mixing:
  rms(total) = 0.32093E-01    rms(broyden)= 0.32093E-01
  rms(prec ) = 0.34148E-01
  weight for this iteration     100.00

 eigenvalues of (default mixing * dielectric matrix)
  average eigenvalue GAMMA=   1.8910
 14.1712  2.8238  2.8238  1.3131  1.3131  0.9178  0.9178  0.1988  0.2020  0.7831
  0.7831  0.6134  0.6134  0.5731  0.3182

 Free energy of the ion-electron system (eV)
  ---------------------------------------------------
  alpha Z        PSCENC =        32.59752184
  Ewald energy   TEWEN  =      6221.61188061
  -Hartree energ DENC   =     -8312.32633956
  -exchange      EXHF   =         0.00000000
  -V(xc)+E(xc)   XCENC  =       -51.68199469
  PAW double counting   =      1201.10894920    -1049.54959715
  entropy T*S    EENTRO =         0.00000000
  eigenvalues    EBANDS =      -476.34753292
  atomic energy  EATOM  =      2388.97348331
  Solvation  Ediel_sol  =         0.00000000
  ---------------------------------------------------
  free energy    TOTEN  =       -45.61362935 eV

  energy without entropy =      -45.61362935  energy(sigma->0) =      -45.61362935


--------------------------------------------------------------------------------------------------------




--------------------------------------- Iteration      1(  21)  ---------------------------------------


    POTLOK:  cpu time   51.0560: real time   51.0922
    SETDIJ:  cpu time    0.0600: real time    0.0596
     EDDAV:  cpu time   26.3800: real time   26.4512
 BZINTS: Fermi energy: -3.490137; 57.000000 electrons
         Band energy:-475.919498;  BLOECHL correction: -0.014057
       DOS:  cpu time    0.0080: real time    0.0071
    CHARGE:  cpu time    1.9240: real time    1.9726
    MIXING:  cpu time    0.0560: real time    0.0532
    --------------------------------------------
      LOOP:  cpu time   79.4840: real time   79.6358

 eigenvalue-minimisations  :  1152
 total energy-change (2. order) :-0.7805553E-02  (-0.5945975E-03)
 number of electron      56.9999993 magnetization       5.4078657
 augmentation part       -2.6950263 magnetization       4.6143941

 Broyden mixing:
  rms(total) = 0.24029E-01    rms(broyden)= 0.24029E-01
  rms(prec ) = 0.25753E-01
  weight for this iteration     100.00

 eigenvalues of (default mixing * dielectric matrix)
  average eigenvalue GAMMA=   1.9170
 14.8058  2.8362  2.8362  1.7032  1.7032  0.9382  0.9382  0.8595  0.8595  0.1988
  0.2020  0.6421  0.6421  0.5947  0.5947  0.3182

 Free energy of the ion-electron system (eV)
  ---------------------------------------------------
  alpha Z        PSCENC =        32.59752184
  Ewald energy   TEWEN  =      6221.61188061
  -Hartree energ DENC   =     -8312.75547928
  -exchange      EXHF   =         0.00000000
  -V(xc)+E(xc)   XCENC  =       -51.69566400
  PAW double counting   =      1201.00743812    -1049.44111739
  entropy T*S    EENTRO =         0.00000000
  eigenvalues    EBANDS =      -475.91949811
  atomic energy  EATOM  =      2388.97348331
  Solvation  Ediel_sol  =         0.00000000
  ---------------------------------------------------
  free energy    TOTEN  =       -45.62143490 eV

  energy without entropy =      -45.62143490  energy(sigma->0) =      -45.62143490


--------------------------------------------------------------------------------------------------------




--------------------------------------- Iteration      1(  22)  ---------------------------------------


    POTLOK:  cpu time   51.1200: real time   51.1782
    SETDIJ:  cpu time    0.0440: real time    0.0473
     EDDAV:  cpu time   24.3680: real time   24.4191
 BZINTS: Fermi energy: -3.477310; 57.000000 electrons
         Band energy:-475.442998;  BLOECHL correction: -0.013863
       DOS:  cpu time    0.0040: real time    0.0067
    CHARGE:  cpu time    1.9680: real time    1.9880
    MIXING:  cpu time    0.0560: real time    0.0546
    --------------------------------------------
      LOOP:  cpu time   77.5600: real time   77.6940

 eigenvalue-minimisations  :  1056
 total energy-change (2. order) :-0.5094469E-02  (-0.3020967E-03)
 number of electron      56.9999993 magnetization       5.4186308
 augmentation part       -2.6942366 magnetization       4.6545272

 Broyden mixing:
  rms(total) = 0.17843E-01    rms(broyden)= 0.17843E-01
  rms(prec ) = 0.19163E-01
  weight for this iteration     100.00

 eigenvalues of (default mixing * dielectric matrix)
  average eigenvalue GAMMA=   1.8895
 14.8764  2.9360  2.9360  1.8784  1.8784  0.9360  0.9360  0.8905  0.8905  0.1988
  0.2020  0.7023  0.7023  0.6297  0.6297  0.5799  0.3182

 Free energy of the ion-electron system (eV)
  ---------------------------------------------------
  alpha Z        PSCENC =        32.59752184
  Ewald energy   TEWEN  =      6221.61188061
  -Hartree energ DENC   =     -8313.21242144
  -exchange      EXHF   =         0.00000000
  -V(xc)+E(xc)   XCENC  =       -51.73698899
[...]
     34      -0.3558      0.00000
     35      -0.3394      0.00000
     36      -0.0457      0.00000
     37       0.0914      0.00000
     38       0.3976      0.00000
     39       0.4805      0.00000
     40       1.2433      0.00000
     41       1.6362      0.00000
     42       1.7225      0.00000
     43       2.2279      0.00000
     44       2.4951      0.00000
     45       2.7546      0.00000
     46       3.1083      0.00000
     47       3.5278      0.00000
     48       3.5307      0.00000

 k-point     5 :      -0.4000    0.2000    0.0000
  band No.  band energies     occupation 
      1     -16.9014      1.00000
      2     -16.2096      1.00000
      3     -15.9710      1.00000
      4     -15.8926      1.00000
      5     -15.6680      1.00000
      6     -15.5184      1.00000
      7     -12.6444      1.00000
      8     -10.5244      1.00000
      9      -7.9716      1.00000
     10      -7.5038      1.00000
     11      -7.3471      1.00000
     12      -6.8317      1.00000
     13      -6.7109      1.00000
     14      -6.1989      1.00000
     15      -5.8715      1.00000
     16      -5.7384      1.00000
     17      -5.7358      1.00000
     18      -5.3415      1.00000
     19      -5.2268      1.00000
     20      -5.1063      1.00000
     21      -4.8578      1.00000
     22      -4.3748      1.00000
     23      -4.2165      1.00000
     24      -4.1888      1.00000
     25      -4.1271      1.00000
     26      -3.0171      1.00000
     27      -1.9298      0.00000
     28      -1.6588      0.00000
     29      -1.6213      0.00000
     30      -0.9837      0.00000
     31      -0.8957      0.00000
     32      -0.8696      0.00000
     33      -0.6286      0.00000
     34      -0.5473      0.00000
     35      -0.0917      0.00000
     36      -0.0367      0.00000
     37      -0.0186      0.00000
     38       0.2534      0.00000
     39       0.5491      0.00000
     40       1.2643      0.00000
     41       1.4295      0.00000
     42       1.4876      0.00000
     43       2.7535      0.00000
     44       2.9492      0.00000
     45       3.0438      0.00000
     46       3.0553      0.00000
     47       3.2846      0.00000
     48       3.5069      0.00000


--------------------------------------------------------------------------------------------------------


 soft charge-density along one line, spin component           1
         0         1         2         3         4         5         6         7         8         9
 total charge-density along one line

 soft charge-density along one line, spin component           2
         0         1         2         3         4         5         6         7         8         9
 total charge-density along one line

 pseudopotential strength for first ion, spin component:           1
 -8.847   0.085  -0.000  -0.003  -0.000   0.699  -0.023   0.000
  0.085  -8.757   0.000   0.000  -0.003  -0.023   0.675  -0.000
 -0.000   0.000  -8.930   0.000   0.000   0.000  -0.000   0.722
 -0.003   0.000   0.000  -8.757  -0.085   0.001  -0.000  -0.000
 -0.000  -0.003   0.000  -0.085  -8.847   0.000   0.001  -0.000
  0.699  -0.023   0.000   0.001   0.000   0.359   0.006  -0.000
 -0.023   0.675  -0.000  -0.000   0.001   0.006   0.365   0.000
  0.000  -0.000   0.722  -0.000  -0.000  -0.000   0.000   0.353
  0.001  -0.000  -0.000   0.675   0.023  -0.000   0.000   0.000
  0.000   0.001  -0.000   0.023   0.699  -0.000  -0.000   0.000
 -0.000  -0.000  -0.001  -0.000   0.000  -0.000   0.000   0.000
  0.000   0.000   0.000   0.000  -0.000  -0.000  -0.000  -0.000
 -0.000  -0.003   0.000  -0.000   0.002   0.000   0.001  -0.000
 -0.000  -0.000  -0.003  -0.000  -0.000   0.000   0.000   0.001
  0.002  -0.000   0.000  -0.003   0.000  -0.000   0.000  -0.000
  0.000   0.002  -0.000   0.000  -0.001  -0.000  -0.000   0.000
  0.000   0.000   0.002   0.000   0.000  -0.000  -0.000  -0.000
 -0.001   0.000  -0.000   0.002  -0.000   0.000  -0.000   0.000
 pseudopotential strength for first ion, spin component:           2
 -7.282  -0.164  -0.000   0.002  -0.000   0.257   0.043   0.000
 -0.164  -7.465   0.000   0.000   0.002   0.043   0.305  -0.000
 -0.000   0.000  -7.143   0.000   0.000   0.000  -0.000   0.221
  0.002   0.000   0.000  -7.465   0.164  -0.000  -0.000  -0.000
 -0.000   0.002   0.000   0.164  -7.282   0.000  -0.000  -0.000
  0.257   0.043   0.000  -0.000   0.000   0.480  -0.011  -0.000
  0.043   0.305  -0.000  -0.000  -0.000  -0.011   0.468   0.000
  0.000  -0.000   0.221  -0.000  -0.000  -0.000   0.000   0.489
 -0.000  -0.000  -0.000   0.305  -0.043   0.000   0.000   0.000
  0.000  -0.000  -0.000  -0.043   0.257  -0.000   0.000   0.000
 -0.000  -0.000   0.005  -0.000   0.000  -0.000   0.000  -0.001
  0.000   0.000  -0.001   0.000  -0.000  -0.000  -0.000   0.000
  0.000  -0.003   0.000  -0.000   0.001  -0.000   0.001  -0.000
 -0.000  -0.000  -0.005  -0.000   0.000   0.000   0.000   0.001
  0.001  -0.000   0.000  -0.003  -0.000   0.000   0.000  -0.000
  0.000   0.002  -0.000   0.000  -0.001   0.000  -0.000   0.000
  0.000   0.000   0.003   0.000  -0.000  -0.000  -0.000  -0.001
 -0.001   0.000  -0.000   0.002  -0.000   0.000  -0.000   0.000
 total augmentation occupancy for first ion, spin component:           1
  0.988  -0.079   0.000  -0.017  -0.000   0.057   0.218  -0.000   0.000  -0.000  -0.000  -0.000   0.001  -0.000   0.013   0.000
 -0.079   0.942  -0.000  -0.000  -0.017   0.217   0.286   0.000  -0.000   0.000   0.000   0.000  -0.004   0.000  -0.003  -0.001
  0.000  -0.000   1.042  -0.000  -0.000  -0.000   0.000  -0.112   0.000   0.000  -0.003  -0.013  -0.000  -0.002   0.000   0.000
 -0.017  -0.000  -0.000   0.942   0.079   0.000   0.000   0.000   0.286  -0.217  -0.000  -0.000   0.003   0.000  -0.004  -0.000
 -0.000  -0.017  -0.000   0.079   0.988   0.000   0.000   0.000  -0.218   0.057   0.000   0.000   0.013   0.000  -0.001  -0.000
  0.057   0.217  -0.000   0.000   0.000   0.180   0.086   0.000   0.002  -0.000   0.000  -0.000  -0.006   0.000   0.023  -0.000
  0.218   0.286   0.000   0.000   0.000   0.086   0.268   0.000  -0.000   0.002   0.000  -0.000  -0.006   0.000  -0.005   0.000
 -0.000   0.000  -0.112   0.000   0.000   0.000   0.000   0.169   0.000  -0.000   0.046  -0.010  -0.000   0.006   0.000   0.000
  0.000  -0.000   0.000   0.286  -0.218   0.002  -0.000   0.000   0.268  -0.086   0.000   0.000   0.005   0.000  -0.006  -0.000
 -0.000   0.000   0.000  -0.217   0.057  -0.000   0.002  -0.000  -0.086   0.180  -0.000   0.000   0.023  -0.000   0.006  -0.001
 -0.000   0.000  -0.003  -0.000   0.000   0.000  -0.000   0.046   0.000  -0.000   1.063  -0.174   0.000  -0.004   0.000   0.000
 -0.000   0.000  -0.013  -0.000   0.000  -0.000   0.000  -0.010   0.000   0.000  -0.174   0.068   0.000   0.002   0.000   0.000
  0.001  -0.004  -0.000   0.003   0.013  -0.006  -0.006  -0.000   0.005   0.023  -0.000   0.000   0.222  -0.000  -0.000  -0.002
 -0.000   0.000  -0.002  -0.000   0.000   0.000   0.000   0.006  -0.000  -0.000  -0.004   0.002   0.000   0.238   0.000   0.000
  0.013  -0.003   0.000  -0.004  -0.001   0.023  -0.005   0.000  -0.006   0.006   0.000   0.000  -0.000   0.000   0.222   0.000
  0.000  -0.001   0.000  -0.000  -0.000  -0.000   0.000   0.000  -0.000  -0.001   0.000   0.000  -0.002   0.000   0.000   0.000
 -0.000   0.000  -0.002   0.000   0.000   0.000   0.000   0.000  -0.000  -0.000  -0.000  -0.000   0.000  -0.004   0.000   0.000
 -0.000   0.000   0.000  -0.001  -0.000  -0.001   0.000  -0.000   0.000   0.000   0.000   0.000  -0.000   0.000  -0.002  -0.000
 total augmentation occupancy for first ion, spin component:           2
  0.682  -0.275   0.000   0.004  -0.000  -0.160   0.061  -0.000   0.002   0.001  -0.000  -0.000   0.003  -0.000  -0.005   0.000
 -0.275   0.380  -0.000  -0.000   0.004   0.063  -0.097   0.000   0.001   0.003  -0.000  -0.000  -0.000   0.000   0.010  -0.000
  0.000  -0.000   0.905  -0.000  -0.000  -0.000   0.000  -0.233   0.000   0.000  -0.025  -0.005   0.000  -0.008  -0.000  -0.000
  0.004  -0.000  -0.000   0.380   0.275   0.003  -0.001   0.000  -0.097  -0.063  -0.000   0.000  -0.010  -0.000  -0.000  -0.000
 -0.000   0.004  -0.000   0.275   0.682  -0.001   0.002   0.000  -0.061  -0.160   0.000   0.000  -0.005   0.000  -0.003   0.001
 -0.160   0.063  -0.000   0.003  -0.001  -0.000  -0.046   0.000   0.001  -0.000   0.000   0.000  -0.002   0.000  -0.004  -0.000
  0.061  -0.097   0.000  -0.001   0.002  -0.046  -0.047  -0.000   0.000   0.001  -0.000   0.000   0.000  -0.000   0.000   0.000
 -0.000   0.000  -0.233   0.000   0.000   0.000  -0.000   0.056  -0.000  -0.000   0.012   0.004   0.000   0.002  -0.000  -0.000
  0.002   0.001   0.000  -0.097  -0.061   0.001   0.000  -0.000  -0.047   0.046   0.000   0.000  -0.000  -0.000   0.000  -0.000
  0.001   0.003   0.000  -0.063  -0.160  -0.000   0.001  -0.000   0.046  -0.000  -0.000  -0.000  -0.004  -0.000   0.002  -0.000
 -0.000  -0.000  -0.025   0.000   0.000   0.000   0.000   0.012   0.000  -0.000   0.155   0.062   0.000  -0.001   0.000   0.000
 -0.000   0.000  -0.005   0.000   0.000   0.000  -0.000   0.004   0.000  -0.000   0.062  -0.020   0.000  -0.000   0.000   0.000
  0.003  -0.000   0.000  -0.010  -0.005  -0.002   0.000   0.000  -0.000  -0.004   0.000   0.000   0.025   0.000  -0.000   0.003
 -0.000   0.000  -0.008   0.000   0.000   0.000   0.000   0.002   0.000  -0.000  -0.001  -0.000   0.000   0.020   0.000   0.000
 -0.005   0.010  -0.000  -0.000  -0.003  -0.004   0.000  -0.000   0.000   0.002   0.000   0.000  -0.000   0.000   0.025  -0.000
  0.000  -0.000  -0.000  -0.000   0.001  -0.000   0.000  -0.000  -0.000  -0.000   0.000   0.000   0.003   0.000  -0.000  -0.000
 -0.000  -0.000  -0.001   0.000   0.000   0.000   0.000   0.000   0.000  -0.000  -0.000   0.000   0.000   0.002   0.000   0.000
  0.001   0.000   0.000  -0.000  -0.000  -0.000   0.000  -0.000   0.000   0.000   0.000   0.000   0.000   0.000   0.003   0.000


------------------------ aborting loop because EDIFF is reached ----------------------------------------





 total charge     

# of ion       s       p       d       tot
------------------------------------------
    1        0.346   0.460   4.267   5.073
    2        0.346   0.461   4.270   5.077
    3        1.088   1.322   0.000   2.410
    4        1.145   1.124   0.110   2.380
    5        1.484   2.321   0.036   3.841
    6        1.478   2.312   0.036   3.825
    7        1.482   2.314   0.036   3.832
    8        1.491   2.294   0.043   3.829
    9        1.480   2.276   0.044   3.800
   10        1.488   2.287   0.043   3.818
--------------------------------------------------
tot         11.828  17.171   8.885  37.885



 magnetization (x)

# of ion       s       p       d       tot
------------------------------------------
    1        0.035   0.040   2.807   2.882
    2        0.035   0.040   2.808   2.883
    3       -0.031   0.001   0.000  -0.029
    4        0.006   0.027  -0.001   0.032
    5        0.000  -0.080   0.005  -0.074
    6       -0.001  -0.061   0.005  -0.057
    7       -0.001  -0.076   0.005  -0.071
    8       -0.003  -0.105   0.004  -0.104
    9       -0.002  -0.100   0.005  -0.097
   10       -0.004  -0.110   0.005  -0.110
--------------------------------------------------
tot          0.035  -0.424   5.643   5.254

    CHARGE:  cpu time    2.0080: real time    2.0066
    FORLOC:  cpu time    0.0600: real time    0.0629
    FORNL :  cpu time    6.5960: real time    6.7036
    STRESS:  cpu time   19.9040: real time   20.0377
    FORCOR:  cpu time   51.2960: real time   51.6000
    FORHAR:  cpu time    0.3560: real time    0.3551
    MIXING:  cpu time    0.0440: real time    0.0416
    OFIELD:  cpu time    0.0000: real time    0.0000

  FORCE on cell =-STRESS in cart. coord.  units (eV):
  Direction    XX          YY          ZZ          XY          YZ          ZX
  --------------------------------------------------------------------------------------
  Alpha Z    40.67778    40.67778    40.67778
  Ewald    8805.40550  8805.40308-10423.48594    -0.00117    -0.00042    -0.00076
  Hartree  9144.60712  9144.60751 -8983.48012    -0.00003     0.00005     0.00008
  E(xc)    -220.44799  -220.44800  -220.48523     0.00003     0.00001     0.00001
  Local  -18689.81926-18689.81851 18628.19729     0.00081     0.00019     0.00036
  n-local   304.85530   306.08530   312.19823     0.57879     0.36428     0.38463
  augment    25.08203    25.08209    21.37150     0.00007     0.00003     0.00002
  Kinetic   592.11652   585.39760   624.83340    -4.28862    -0.04752    -0.37490
  Fock        0.00000     0.00000     0.00000     0.00000     0.00000     0.00000
  -------------------------------------------------------------------------------------
  Total      -0.26808    -0.26808    -0.17310     0.00000     0.00000     0.00000
  in kB      -0.55321    -0.55321    -0.35721     0.00000     0.00000     0.00000
  external pressure =       -0.49 kB  Pullay stress =        0.00 kB


 VOLUME and BASIS-vectors are now :
 -----------------------------------------------------------------------------
  energy-cutoff  :      520.00
  volume of cell :      776.39
      direct lattice vectors                 reciprocal lattice vectors
     6.351684246  0.000000012  0.000000000     0.157438557 -0.090897187  0.000000000
     3.175841734  5.500719643  0.000000000    -0.000000000  0.181794395 -0.000000000
    -0.000000000  0.000000000 22.221266114    -0.000000000 -0.000000000  0.045001936

  length of vectors
     6.351684246  6.351683817 22.221266114     0.181794383  0.181794395  0.045001936


 FORCES acting on ions
    electron-ion (+dipol)            ewald-force                    non-local-force                 convergence-correction
 -----------------------------------------------------------------------------------------------
   -.132E-03 -.802E-04 -.465E+01   0.364E-03 0.216E-03 0.489E+01   0.919E-20 0.139E-16 -.176E+00   0.115E-06 0.664E-07 -.251E-02
   0.133E-03 0.759E-04 -.573E+01   -.380E-03 -.224E-03 0.598E+01   0.983E-20 -.920E-20 -.189E+00   0.156E-06 0.966E-07 -.235E-02
   -.500E-04 -.263E-04 0.247E+03   -.227E-03 -.126E-03 -.247E+03   0.260E-16 -.191E-16 0.184E-01   0.657E-07 0.382E-07 0.535E-02
   0.312E-04 0.199E-04 -.202E+03   0.169E-03 0.944E-04 0.201E+03   0.341E-17 0.139E-16 0.119E+01   -.747E-07 -.415E-07 -.607E-02
   -.574E+01 -.688E-03 -.417E+03   0.366E+01 -.220E-01 0.420E+03   0.209E+01 -.562E-02 -.225E+01   0.327E-02 0.253E-01 -.606E-02
   0.287E+01 0.497E+01 -.417E+03   -.185E+01 -.316E+01 0.420E+03   -.105E+01 -.180E+01 -.225E+01   0.203E-01 -.155E-01 -.606E-02
   0.287E+01 -.497E+01 -.417E+03   -.181E+01 0.318E+01 0.420E+03   -.104E+01 0.181E+01 -.225E+01   -.235E-01 -.981E-02 -.606E-02
   -.489E+01 -.789E-01 0.405E+03   0.700E+01 0.506E-01 -.408E+03   -.212E+01 0.592E-02 0.224E+01   -.340E-02 0.261E-01 0.407E-02
   0.238E+01 0.427E+01 0.405E+03   -.346E+01 -.609E+01 -.408E+03   0.107E+01 0.184E+01 0.224E+01   0.243E-01 -.101E-01 0.407E-02
   0.251E+01 -.419E+01 0.405E+03   -.355E+01 0.604E+01 -.408E+03   0.106E+01 -.184E+01 0.224E+01   -.209E-01 -.160E-01 0.407E-02
 -----------------------------------------------------------------------------------------------
   -.115E-03 -.513E-04 -.800E+00   -.888E-14 -.266E-14 -.568E-13   0.666E-15 -.222E-15 0.799E+00   0.375E-06 0.210E-06 -.115E-01


 POSITION                                       TOTAL-FORCE (eV/Angst)
 -----------------------------------------------------------------------------------
      3.17584      1.83357     11.10897        -0.000000     -0.000000      0.063545
      6.35169      3.66715     11.11230        -0.000000     -0.000000      0.054250
     -0.00000      0.00000      9.90595        -0.000000     -0.000000     -0.107333
     -0.00000      0.00000     12.26134        -0.000000     -0.000000     -0.261216
      3.97721      0.00116     12.72189         0.012593     -0.002353      0.047710
      1.18824      2.05578     12.72189        -0.008334     -0.009729      0.047710
      4.36209      3.44379     12.72189        -0.004259      0.012082      0.047710
      5.52402      5.49931      9.54599        -0.011548      0.003145      0.035874
      8.35221      3.46783      9.54599         0.008498      0.008428      0.035874
      5.17881      2.03429      9.54599         0.003050     -0.011574      0.035874
 -----------------------------------------------------------------------------------
    total drift:                               -0.000114     -0.000051     -0.012431


--------------------------------------------------------------------------------------------------------



  FREE ENERGIE OF THE ION-ELECTRON SYSTEM (eV)
  ---------------------------------------------------
  free  energy   TOTEN  =       -48.12276482 eV

  energy  without entropy=      -48.12276482  energy(sigma->0) =      -48.12276482

 d Force =-0.1286724E-03[-0.340E-03, 0.829E-04]  d Energy =-0.8916629E-03 0.763E-03
 d Force =-0.7743817E+00[-0.774E+00,-0.775E+00]  d Ewald  = 0.2127805E+02-0.221E+02


--------------------------------------------------------------------------------------------------------


    POTLOK:  cpu time   51.5640: real time   51.7625


--------------------------------------------------------------------------------------------------------




--------------------------------------------------------------------------------------------------------


  
 reached required accuracy - stopping structural energy minimisation
     LOOP+:  cpu time  518.9560: real time  521.3337
    4ORBIT:  cpu time    0.0000: real time    0.0000



 total charge     

# of ion       s       p       d       tot
------------------------------------------
    1        0.346   0.460   4.267   5.073
    2        0.346   0.461   4.270   5.077
    3        1.088   1.322   0.000   2.410
    4        1.145   1.124   0.110   2.380
    5        1.484   2.321   0.036   3.841
    6        1.478   2.312   0.036   3.825
    7        1.482   2.314   0.036   3.832
    8        1.491   2.294   0.043   3.829
    9        1.480   2.276   0.044   3.800
   10        1.488   2.287   0.043   3.818
--------------------------------------------------
tot         11.828  17.171   8.885  37.885



 magnetization (x)

# of ion       s       p       d       tot
------------------------------------------
    1        0.035   0.040   2.807   2.882
    2        0.035   0.040   2.808   2.883
    3       -0.031   0.001   0.000  -0.029
    4        0.006   0.027  -0.001   0.032
    5        0.000  -0.080   0.005  -0.074
    6       -0.001  -0.061   0.005  -0.057
    7       -0.001  -0.076   0.005  -0.071
    8       -0.003  -0.105   0.004  -0.104
    9       -0.002  -0.100   0.005  -0.097
   10       -0.004  -0.110   0.005  -0.110
--------------------------------------------------
tot          0.035  -0.424   5.643   5.254

 BZINTS: Fermi energy: -2.247933; 57.000000 electrons
         Band energy:-461.401095;  BLOECHL correction: -0.025547

 total amount of memory used by VASP MPI-rank0   131917. kBytes
=======================================================================

   base      :      30000. kBytes
   nonlr-proj:       9417. kBytes
   fftplans  :      11247. kBytes
   grid      :      68332. kBytes
   one-center:        311. kBytes
   wavefun   :      12610. kBytes

  
  
 General timing and accounting informations for this job:
 ========================================================
  
                  Total CPU time used (sec):     6630.516
                            User time (sec):     6480.076
                          System time (sec):      150.440
                         Elapsed time (sec):     6668.269
  
                   Maximum memory used (kb):      382252.
                   Average memory used (kb):           0.
  
                          Minor page faults:      6491936
                          Major page faults:            5
                 Voluntary context switches:          971
