PROCAR lm decomposed
# of k-points:    5         # of bands:   48         # of ions:   10

 k-point     1 :    0.00000000 0.00000000 0.00000000     weight = 0.04000000

band     1 # energy  -17.38878466 # occ.  1.00000000

ion      s     py     pz     px    dxy    dyz    dz2    dxz  x2-y2    tot
    1  0.014  0.000  0.000  0.000  0.000  0.000  0.000  0.000  0.000  0.014
    2  0.014  0.000  0.000  0.000  0.000  0.000  0.000  0.000  0.000  0.014
    3  0.105  0.000  0.000  0.000  0.000  0.000  0.000  0.000  0.000  0.105
    4  0.042  0.000  0.001  0.000  0.000  0.000  0.000  0.000  0.000  0.044
    5  0.043  0.000  0.001  0.000  0.000  0.000  0.000  0.000  0.000  0.044
    6  0.043  0.000  0.001  0.000  0.000  0.000  0.000  0.000  0.000  0.044
    7  0.043  0.000  0.001  0.000  0.000  0.000  0.000  0.000  0.000  0.044
    8  0.113  0.000  0.001  0.001  0.000  0.000  0.000  0.000  0.000  0.116
    9  0.113  0.001  0.001  0.000  0.000  0.000  0.000  0.000  0.000  0.116
   10  0.113  0.001  0.001  0.000  0.000  0.000  0.000  0.000  0.000  0.116
tot    0.645  0.003  0.006  0.003  0.000  0.000  0.000  0.000  0.000  0.658

band     2 # energy  -16.34749647 # occ.  1.00000000

ion      s     py     pz     px    dxy    dyz    dz2    dxz  x2-y2    tot
    1  0.001  0.000  0.007  0.000  0.000  0.000  0.000  0.000  0.000  0.009
    2  0.001  0.000  0.007  0.000  0.000  0.000  0.000  0.000  0.000  0.009
    3  0.026  0.000  0.001  0.000  0.000  0.000  0.000  0.000  0.000  0.027
    4  0.053  0.000  0.002  0.000  0.000  0.000  0.001  0.000  0.000  0.056
    5  0.150  0.000  0.000  0.001  0.000  0.000  0.000  0.000  0.000  0.151
    6  0.150  0.001  0.000  0.000  0.000  0.000  0.000  0.000  0.000  0.151
    7  0.150  0.000  0.000  0.000  0.000  0.000  0.000  0.000  0.000  0.151
    8  0.052  0.000  0.000  0.001  0.000  0.000  0.000  0.000  0.000  0.053
    9  0.052  0.000  0.000  0.000  0.000  0.000  0.000  0.000  0.000  0.053
   10  0.052  0.000  0.000  0.000  0.000  0.000  0.000  0.000  0.000  0.053
tot    0.688  0.002  0.018  0.002  0.000  0.000  0.002  0.000  0.000  0.712

band     3 # energy  -15.45721579 # occ.  1.00000000

ion      s     py     pz     px    dxy    dyz    dz2    dxz  x2-y2    tot
    1  0.000  0.005  0.000  0.000  0.002  0.004  0.000  0.000  0.001  0.012
    2  0.000  0.004  0.000  0.002  0.001  0.003  0.000  0.002  0.001  0.012
    3  0.000  0.000  0.000  0.016  0.000  0.000  0.000  0.000  0.000  0.017
    4  0.000  0.000  0.000  0.000  0.000  0.000  0.000  0.000  0.000  0.000
    5  0.001  0.000  0.000  0.000  0.000  0.000  0.000  0.000  0.000  0.001
    6  0.000  0.000  0.000  0.000  0.000  0.000  0.000  0.000  0.000  0.000
    7  0.000  0.000  0.000  0.000  0.000  0.000  0.000  0.000  0.000  0.000
    8  0.461  0.000  0.002  0.002  0.000  0.000  0.000  0.000  0.000  0.465
    9  0.194  0.001  0.001  0.000  0.000  0.000  0.000  0.000  0.000  0.195
   10  0.057  0.000  0.000  0.000  0.000  0.000  0.000  0.000  0.000  0.058
tot    0.713  0.010  0.002  0.020  0.003  0.007  0.000  0.002  0.002  0.759

band     4 # energy  -15.45718152 # occ.  1.00000000

ion      s     py     pz     px    dxy    dyz    dz2    dxz  x2-y2    tot
    1  0.000  0.000  0.000  0.005  0.001  0.000  0.000  0.004  0.002  0.012
    2  0.000  0.002  0.000  0.004  0.001  0.002  0.000  0.003  0.001  0.012
    3  0.000  0.016  0.000  0.000  0.000  0.000  0.000  0.000  0.000  0.017
    4  0.000  0.000  0.000  0.000  0.000  0.000  0.000  0.000  0.000  0.000
    5  0.000  0.000  0.000  0.000  0.000  0.000  0.000  0.000  0.000  0.000
    6  0.000  0.000  0.000  0.000  0.000  0.000  0.000  0.000  0.000  0.000
    7  0.001  0.000  0.000  0.000  0.000  0.000  0.000  0.000  0.000  0.001
    8  0.013  0.000  0.000  0.000  0.000  0.000  0.000  0.000  0.000  0.014
    9  0.281  0.001  0.001  0.000  0.000  0.000  0.000  0.000  0.000  0.283
   10  0.418  0.001  0.001  0.000  0.000  0.000  0.000  0.000  0.000  0.421
tot    0.713  0.020  0.002  0.010  0.002  0.002  0.000  0.007  0.003  0.759

band     5 # energy  -15.22309463 # occ.  1.00000000

ion      s     py     pz     px    dxy    dyz    dz2    dxz  x2-y2    tot
    1  0.000  0.003  0.000  0.002  0.001  0.003  0.000  0.001  0.001  0.011
    2  0.000  0.004  0.000  0.000  0.002  0.005  0.000  0.000  0.001  0.012
    3  0.000  0.000  0.000  0.000  0.000  0.000  0.000  0.000  0.000  0.000
    4  0.000  0.001  0.000  0.018  0.000  0.000  0.000  0.000  0.002  0.022
    5  0.465  0.000  0.002  0.001  0.000  0.000  0.000  0.000  0.000  0.468
    6  0.205  0.000  0.001  0.000  0.000  0.000  0.000  0.000  0.000  0.206
    7  0.053  0.000  0.000  0.000  0.000  0.000  0.000  0.000  0.000  0.053
    8  0.000  0.000  0.000  0.000  0.000  0.000  0.000  0.000  0.000  0.001
    9  0.000  0.000  0.000  0.000  0.000  0.000  0.000  0.000  0.000  0.000
   10  0.000  0.000  0.000  0.000  0.000  0.000  0.000  0.000  0.000  0.000
tot    0.723  0.008  0.002  0.022  0.003  0.008  0.000  0.002  0.004  0.773

band     6 # energy  -15.22306127 # occ.  1.00000000

ion      s     py     pz     px    dxy    dyz    dz2    dxz  x2-y2    tot
    1  0.000  0.002  0.000  0.003  0.001  0.001  0.000  0.003  0.001  0.011
    2  0.000  0.000  0.000  0.004  0.001  0.000  0.000  0.005  0.002  0.012
    3  0.000  0.000  0.000  0.000  0.000  0.000  0.000  0.000  0.000  0.000
    4  0.000  0.018  0.000  0.001  0.002  0.000  0.000  0.000  0.000  0.022
    5  0.017  0.000  0.000  0.000  0.000  0.000  0.000  0.000  0.000  0.017
    6  0.277  0.001  0.001  0.000  0.000  0.000  0.000  0.000  0.000  0.278
    7  0.429  0.001  0.001  0.000  0.000  0.000  0.000  0.000  0.000  0.432
    8  0.000  0.000  0.000  0.000  0.000  0.000  0.000  0.000  0.000  0.000
    9  0.000  0.000  0.000  0.000  0.000  0.000  0.000  0.000  0.000  0.000
   10  0.000  0.000  0.000  0.000  0.000  0.000  0.000  0.000  0.000  0.001
tot    0.723  0.022  0.002  0.008  0.004  0.002  0.000  0.008  0.003  0.773

band     7 # energy  -13.06912338 # occ.  1.00000000

ion      s     py     pz     px    dxy    dyz    dz2    dxz  x2-y2    tot
    1  0.012  0.000  0.001  0.000  0.000  0.000  0.001  0.000  0.000  0.013
    2  0.012  0.000  0.001  0.000  0.000  0.000  0.001  0.000  0.000  0.013
    3  0.277  0.000  0.008  0.000  0.000  0.000  0.000  0.000  0.000  0.285
    4  0.099  0.000  0.014  0.000  0.000  0.000  0.002  0.000  0.000  0.115
    5  0.010  0.000  0.000  0.003  0.000  0.000  0.000  0.000  0.000  0.013
    6  0.010  0.003  0.000  0.001  0.000  0.000  0.000  0.000  0.000  0.013
    7  0.010  0.003  0.000  0.001  0.000  0.000  0.000  0.000  0.000  0.013
    8  0.052  0.000  0.000  0.014  0.000  0.000  0.000  0.000  0.001  0.067
    9  0.052  0.010  0.000  0.004  0.001  0.000  0.000  0.000  0.000  0.067
   10  0.052  0.010  0.000  0.003  0.001  0.000  0.000  0.000  0.000  0.067
tot    0.585  0.026  0.024  0.026  0.002  0.001  0.003  0.001  0.002  0.669

band     8 # energy  -10.42908731 # occ.  1.00000000

ion      s     py     pz     px    dxy    dyz    dz2    dxz  x2-y2    tot
    1  0.000  0.000  0.006  0.000  0.000  0.000  0.000  0.000  0.000  0.007
    2  0.000  0.000  0.006  0.000  0.000  0.000  0.000  0.000  0.000  0.007
    3  0.090  0.000  0.019  0.000  0.000  0.000  0.000  0.000  0.000  0.110
    4  0.350  0.000  0.001  0.000  0.000  0.000  0.000  0.000  0.000  0.352
    5  0.023  0.000  0.000  0.028  0.000  0.000  0.000  0.000  0.002  0.053
    6  0.023  0.021  0.000  0.007  0.001  0.000  0.000  0.000  0.000  0.053
    7  0.023  0.021  0.000  0.007  0.001  0.000  0.000  0.000  0.000  0.053
    8  0.007  0.000  0.000  0.011  0.000  0.000  0.000  0.000  0.001  0.019
    9  0.007  0.008  0.000  0.003  0.001  0.000  0.000  0.000  0.000  0.019
   10  0.007  0.008  0.000  0.003  0.001  0.000  0.000  0.000  0.000  0.019
tot    0.531  0.058  0.035  0.058  0.003  0.000  0.002  0.000  0.003  0.692

band     9 # energy   -8.22829149 # occ.  1.00000000

ion      s     py     pz     px    dxy    dyz    dz2    dxz  x2-y2    tot
    1  0.000  0.000  0.000  0.006  0.000  0.013  0.000  0.016  0.004  0.039
    2  0.000  0.006  0.000  0.000  0.004  0.023  0.000  0.007  0.000  0.039
    3  0.000  0.042  0.000  0.066  0.000  0.000  0.000  0.000  0.000  0.108
    4  0.000  0.008  0.000  0.013  0.000  0.000  0.000  0.000  0.000  0.021
    5  0.003  0.002  0.002  0.011  0.000  0.000  0.000  0.000  0.000  0.019
    6  0.004  0.015  0.004  0.001  0.000  0.000  0.000  0.000  0.000  0.024
    7  0.000  0.000  0.000  0.005  0.000  0.000  0.000  0.000  0.000  0.006
    8  0.007  0.012  0.000  0.079  0.000  0.000  0.000  0.001  0.000  0.099
    9  0.010  0.103  0.001  0.012  0.000  0.001  0.000  0.000  0.000  0.127
   10  0.000  0.002  0.000  0.031  0.000  0.000  0.000  0.000  0.001  0.034
tot    0.024  0.189  0.007  0.225  0.005  0.037  0.000  0.024  0.005  0.516

band    10 # energy   -8.22827274 # occ.  1.00000000

ion      s     py     pz     px    dxy    dyz    dz2    dxz  x2-y2    tot
    1  0.000  0.006  0.000  0.000  0.004  0.016  0.000  0.013  0.000  0.039
    2  0.000  0.000  0.000  0.006  0.000  0.007  0.000  0.023  0.004  0.039
    3  0.000  0.066  0.000  0.042  0.000  0.000  0.000  0.000  0.000  0.108
    4  0.000  0.013  0.000  0.008  0.000  0.000  0.000  0.000  0.000  0.021
    5  0.002  0.003  0.002  0.007  0.000  0.000  0.000  0.000  0.000  0.014
    6  0.001  0.000  0.001  0.007  0.000  0.000  0.000  0.000  0.000  0.008
    7  0.004  0.014  0.004  0.003  0.000  0.000  0.000  0.000  0.000  0.026
    8  0.004  0.019  0.000  0.050  0.001  0.000  0.000  0.000  0.000  0.074
    9  0.002  0.001  0.000  0.042  0.000  0.000  0.000  0.000  0.000  0.046
   10  0.011  0.102  0.001  0.024  0.000  0.001  0.000  0.000  0.000  0.140
tot    0.024  0.225  0.007  0.189  0.005  0.024  0.000  0.037  0.005  0.516

band    11 # energy   -7.81426221 # occ.  1.00000000

ion      s     py     pz     px    dxy    dyz    dz2    dxz  x2-y2    tot
    1  0.043  0.000  0.000  0.000  0.000  0.000  0.014  0.000  0.000  0.058
    2  0.043  0.000  0.000  0.000  0.000  0.000  0.014  0.000  0.000  0.058
    3  0.000  0.000  0.057  0.000  0.000  0.000  0.000  0.000  0.000  0.057
    4  0.008  0.000  0.060  0.000  0.000  0.000  0.001  0.000  0.000  0.069
    5  0.002  0.000  0.031  0.011  0.000  0.000  0.000  0.000  0.000  0.044
    6  0.002  0.008  0.031  0.003  0.000  0.000  0.000  0.000  0.000  0.044
    7  0.002  0.008  0.031  0.003  0.000  0.000  0.000  0.000  0.000  0.044
    8  0.003  0.000  0.038  0.005  0.000  0.000  0.000  0.000  0.000  0.047
    9  0.003  0.004  0.038  0.001  0.000  0.000  0.000  0.000  0.000  0.047
   10  0.003  0.004  0.038  0.001  0.000  0.000  0.000  0.000  0.000  0.047
tot    0.110  0.024  0.323  0.024  0.001  0.000  0.032  0.000  0.001  0.515

band    12 # energy   -7.56869028 # occ.  1.00000000

ion      s     py     pz     px    dxy    dyz    dz2    dxz  x2-y2    tot
    1  0.083  0.000  0.000  0.000  0.000  0.000  0.025  0.000  0.000  0.108
    2  0.083  0.000  0.000  0.000  0.000  0.000  0.026  0.000  0.000  0.108
    3  0.000  0.000  0.000  0.000  0.000  0.000  0.000  0.000  0.000  0.000
    4  0.000  0.000  0.000  0.000  0.000  0.000  0.000  0.000  0.000  0.000
    5  0.000  0.055  0.000  0.000  0.000  0.000  0.000  0.000  0.000  0.056
    6  0.000  0.014  0.000  0.041  0.000  0.000  0.000  0.000  0.000  0.056
    7  0.000  0.014  0.000  0.041  0.000  0.000  0.000  0.000  0.000  0.056
    8  0.000  0.063  0.000  0.000  0.000  0.000  0.000  0.000  0.000  0.064
    9  0.000  0.016  0.000  0.047  0.000  0.000  0.000  0.000  0.000  0.064
   10  0.000  0.016  0.000  0.047  0.000  0.000  0.000  0.000  0.000  0.064
tot    0.165  0.177  0.000  0.177  0.001  0.001  0.051  0.001  0.001  0.575

band    13 # energy   -7.47452222 # occ.  1.00000000

ion      s     py     pz     px    dxy    dyz    dz2    dxz  x2-y2    tot
    1  0.000  0.017  0.000  0.000  0.006  0.013  0.000  0.005  0.006  0.047
    2  0.000  0.011  0.000  0.006  0.000  0.001  0.000  0.017  0.012  0.047
    3  0.000  0.002  0.000  0.011  0.000  0.000  0.000  0.000  0.000  0.013
    4  0.000  0.013  0.000  0.071  0.000  0.000  0.000  0.001  0.000  0.085
    5  0.001  0.006  0.002  0.120  0.000  0.000  0.000  0.001  0.000  0.130
    6  0.001  0.103  0.001  0.002  0.000  0.001  0.000  0.000  0.000  0.108
    7  0.000  0.019  0.000  0.022  0.000  0.000  0.000  0.000  0.001  0.042
    8  0.000  0.001  0.009  0.023  0.000  0.000  0.001  0.000  0.000  0.034
    9  0.000  0.019  0.007  0.001  0.000  0.000  0.000  0.000  0.000  0.027
   10  0.000  0.003  0.000  0.003  0.000  0.000  0.000  0.000  0.000  0.006
tot    0.003  0.192  0.019  0.259  0.006  0.015  0.002  0.024  0.019  0.539

band    14 # energy   -7.47450237 # occ.  1.00000000

ion      s     py     pz     px    dxy    dyz    dz2    dxz  x2-y2    tot
    1  0.000  0.000  0.000  0.017  0.006  0.005  0.000  0.013  0.006  0.047
    2  0.000  0.006  0.000  0.011  0.012  0.017  0.000  0.001  0.000  0.047
    3  0.000  0.011  0.000  0.002  0.000  0.000  0.000  0.000  0.000  0.013
    4  0.000  0.071  0.000  0.013  0.000  0.001  0.000  0.000  0.000  0.085
    5  0.000  0.033  0.000  0.022  0.001  0.000  0.000  0.000  0.000  0.057
    6  0.001  0.013  0.001  0.062  0.000  0.000  0.000  0.000  0.000  0.078
    7  0.002  0.097  0.002  0.043  0.000  0.001  0.000  0.000  0.000  0.145
    8  0.000  0.005  0.002  0.004  0.000  0.000  0.000  0.000  0.000  0.011
    9  0.000  0.003  0.004  0.010  0.000  0.000  0.000  0.000  0.000  0.018
   10  0.000  0.019  0.011  0.008  0.000  0.000  0.001  0.000  0.000  0.038
tot    0.003  0.259  0.019  0.192  0.019  0.024  0.002  0.015  0.006  0.539

band    15 # energy   -6.29596842 # occ.  1.00000000

ion      s     py     pz     px    dxy    dyz    dz2    dxz  x2-y2    tot
    1  0.000  0.000  0.050  0.000  0.000  0.000  0.000  0.000  0.000  0.050
    2  0.000  0.000  0.050  0.000  0.000  0.000  0.000  0.000  0.000  0.050
    3  0.000  0.000  0.000  0.000  0.000  0.000  0.000  0.000  0.000  0.000
    4  0.000  0.000  0.000  0.000  0.000  0.000  0.000  0.000  0.000  0.000
    5  0.000  0.077  0.000  0.000  0.000  0.000  0.000  0.000  0.000  0.077
    6  0.000  0.019  0.000  0.058  0.000  0.000  0.000  0.000  0.000  0.077
    7  0.000  0.019  0.000  0.058  0.000  0.000  0.000  0.000  0.000  0.077
    8  0.000  0.070  0.000  0.000  0.000  0.000  0.000  0.000  0.000  0.070
    9  0.000  0.017  0.000  0.053  0.000  0.000  0.000  0.000  0.000  0.070
   10  0.000  0.018  0.000  0.052  0.000  0.000  0.000  0.000  0.000  0.070
tot    0.000  0.220  0.100  0.220  0.001  0.000  0.000  0.000  0.001  0.543

band    16 # energy   -5.58265576 # occ.  1.00000000

ion      s     py     pz     px    dxy    dyz    dz2    dxz  x2-y2    tot
    1  0.000  0.002  0.000  0.000  0.001  0.000  0.000  0.099  0.119  0.221
    2  0.000  0.002  0.000  0.000  0.000  0.000  0.000  0.100  0.122  0.225
    3  0.000  0.000  0.000  0.000  0.000  0.000  0.000  0.000  0.000  0.000
    4  0.000  0.000  0.000  0.000  0.000  0.000  0.000  0.000  0.001  0.001
    5  0.002  0.000  0.039  0.002  0.000  0.000  0.000  0.000  0.000  0.043
    6  0.001  0.005  0.012  0.027  0.000  0.000  0.000  0.001  0.000  0.045
    7  0.000  0.006  0.008  0.030  0.000  0.000  0.000  0.001  0.000  0.046
    8  0.002  0.000  0.052  0.005  0.000  0.000  0.000  0.000  0.000  0.059
    9  0.001  0.005  0.016  0.037  0.000  0.000  0.000  0.001  0.000  0.060
   10  0.000  0.007  0.010  0.041  0.000  0.000  0.000  0.001  0.000  0.059
tot    0.005  0.026  0.136  0.142  0.002  0.001  0.001  0.203  0.242  0.758

band    17 # energy   -5.58264504 # occ.  1.00000000

ion      s     py     pz     px    dxy    dyz    dz2    dxz  x2-y2    tot
    1  0.000  0.000  0.000  0.002  0.119  0.099  0.000  0.000  0.001  0.221
    2  0.000  0.000  0.000  0.002  0.122  0.100  0.000  0.000  0.000  0.225
    3  0.000  0.000  0.000  0.000  0.000  0.000  0.000  0.000  0.000  0.000
    4  0.000  0.000  0.000  0.000  0.001  0.000  0.000  0.000  0.000  0.001
    5  0.000  0.045  0.000  0.000  0.000  0.001  0.000  0.000  0.000  0.046
    6  0.001  0.008  0.027  0.007  0.000  0.000  0.000  0.000  0.000  0.044
    7  0.002  0.006  0.031  0.004  0.000  0.000  0.000  0.000  0.000  0.044
    8  0.000  0.058  0.000  0.000  0.000  0.001  0.000  0.000  0.000  0.059
    9  0.001  0.014  0.036  0.007  0.000  0.000  0.000  0.000  0.000  0.059
   10  0.001  0.012  0.042  0.004  0.000  0.000  0.000  0.000  0.000  0.060
tot    0.005  0.142  0.136  0.026  0.242  0.203  0.001  0.001  0.002  0.758

band    18 # energy   -5.26433735 # occ.  1.00000000

ion      s     py     pz     px    dxy    dyz    dz2    dxz  x2-y2    tot
    1  0.000  0.000  0.000  0.001  0.075  0.077  0.000  0.014  0.016  0.183
    2  0.000  0.000  0.000  0.001  0.082  0.081  0.000  0.008  0.007  0.180
    3  0.000  0.000  0.000  0.001  0.000  0.000  0.000  0.000  0.000  0.001
    4  0.000  0.000  0.000  0.000  0.000  0.000  0.000  0.002  0.000  0.003
    5  0.004  0.001  0.084  0.003  0.000  0.000  0.000  0.000  0.000  0.092
    6  0.003  0.004  0.056  0.000  0.000  0.000  0.000  0.000  0.000  0.064
    7  0.000  0.002  0.003  0.003  0.000  0.000  0.000  0.000  0.000  0.008
    8  0.005  0.001  0.092  0.001  0.000  0.000  0.000  0.000  0.000  0.099
    9  0.003  0.003  0.063  0.002  0.000  0.000  0.000  0.000  0.000  0.071
   10  0.000  0.003  0.003  0.006  0.000  0.000  0.000  0.000  0.000  0.012
tot    0.016  0.013  0.300  0.018  0.158  0.159  0.000  0.026  0.023  0.712

band    19 # energy   -5.26432038 # occ.  1.00000000

ion      s     py     pz     px    dxy    dyz    dz2    dxz  x2-y2    tot
    1  0.000  0.001  0.000  0.000  0.016  0.014  0.000  0.077  0.075  0.183
    2  0.000  0.001  0.000  0.000  0.007  0.008  0.000  0.081  0.082  0.180
    3  0.000  0.001  0.000  0.000  0.000  0.000  0.000  0.000  0.000  0.001
    4  0.000  0.000  0.000  0.000  0.000  0.002  0.000  0.000  0.000  0.003
    5  0.001  0.004  0.011  0.000  0.000  0.000  0.000  0.000  0.000  0.017
    6  0.002  0.000  0.039  0.004  0.000  0.000  0.000  0.000  0.000  0.045
    7  0.005  0.002  0.092  0.002  0.000  0.000  0.000  0.000  0.000  0.101
    8  0.001  0.008  0.013  0.000  0.000  0.000  0.000  0.000  0.000  0.022
    9  0.002  0.000  0.042  0.005  0.000  0.000  0.000  0.000  0.000  0.050
   10  0.005  0.000  0.102  0.001  0.000  0.000  0.000  0.000  0.000  0.109
tot    0.016  0.018  0.300  0.013  0.023  0.026  0.000  0.159  0.158  0.712

band    20 # energy   -5.20799287 # occ.  1.00000000

ion      s     py     pz     px    dxy    dyz    dz2    dxz  x2-y2    tot
    1  0.003  0.000  0.000  0.000  0.000  0.000  0.129  0.000  0.000  0.133
    2  0.003  0.000  0.000  0.000  0.000  0.000  0.130  0.000  0.000  0.134
    3  0.003  0.000  0.119  0.000  0.000  0.000  0.000  0.000  0.000  0.122
    4  0.000  0.000  0.069  0.000  0.000  0.000  0.009  0.000  0.000  0.078
    5  0.000  0.000  0.024  0.014  0.000  0.000  0.000  0.000  0.000  0.038
    6  0.000  0.010  0.024  0.003  0.000  0.000  0.000  0.000  0.000  0.038
    7  0.000  0.010  0.024  0.003  0.000  0.000  0.000  0.000  0.000  0.038
    8  0.000  0.000  0.004  0.015  0.000  0.000  0.000  0.001  0.000  0.020
    9  0.000  0.011  0.004  0.004  0.000  0.000  0.000  0.000  0.000  0.020
   10  0.000  0.011  0.004  0.004  0.000  0.000  0.000  0.000  0.000  0.020
tot    0.010  0.042  0.272  0.042  0.001  0.001  0.269  0.001  0.001  0.641

band    21 # energy   -4.63305381 # occ.  1.00000000

ion      s     py     pz     px    dxy    dyz    dz2    dxz  x2-y2    tot
    1  0.000  0.017  0.000  0.001  0.003  0.001  0.000  0.044  0.000  0.066
    2  0.000  0.016  0.000  0.001  0.004  0.001  0.000  0.045  0.000  0.067
    3  0.000  0.000  0.000  0.029  0.000  0.000  0.000  0.000  0.000  0.029
    4  0.000  0.000  0.000  0.015  0.000  0.000  0.000  0.000  0.003  0.017
    5  0.005  0.000  0.103  0.023  0.000  0.000  0.000  0.000  0.000  0.131
    6  0.001  0.000  0.023  0.013  0.000  0.000  0.000  0.000  0.000  0.038
    7  0.001  0.001  0.028  0.013  0.000  0.000  0.000  0.000  0.000  0.043
    8  0.007  0.000  0.076  0.031  0.000  0.000  0.000  0.000  0.002  0.115
    9  0.002  0.000  0.017  0.041  0.000  0.000  0.000  0.001  0.000  0.061
   10  0.002  0.000  0.021  0.040  0.000  0.000  0.000  0.001  0.000  0.064
tot    0.017  0.035  0.268  0.205  0.008  0.002  0.000  0.091  0.006  0.632

band    22 # energy   -4.63304099 # occ.  1.00000000

ion      s     py     pz     px    dxy    dyz    dz2    dxz  x2-y2    tot
    1  0.000  0.001  0.000  0.017  0.000  0.044  0.000  0.001  0.003  0.066
    2  0.000  0.001  0.000  0.016  0.000  0.045  0.000  0.001  0.004  0.067
    3  0.000  0.029  0.000  0.000  0.000  0.000  0.000  0.000  0.000  0.029
    4  0.000  0.015  0.000  0.000  0.003  0.000  0.000  0.000  0.000  0.017
    5  0.000  0.010  0.000  0.000  0.000  0.001  0.000  0.000  0.000  0.011
    6  0.004  0.020  0.079  0.001  0.000  0.000  0.000  0.000  0.000  0.104
    7  0.003  0.019  0.075  0.000  0.000  0.000  0.000  0.000  0.000  0.098
    8  0.000  0.044  0.000  0.000  0.000  0.001  0.000  0.000  0.000  0.045
    9  0.005  0.033  0.059  0.000  0.001  0.000  0.000  0.000  0.000  0.099
   10  0.005  0.034  0.055  0.000  0.001  0.000  0.000  0.000  0.000  0.096
tot    0.017  0.205  0.268  0.035  0.006  0.091  0.000  0.002  0.008  0.632

band    23 # energy   -4.58644464 # occ.  1.00000000

ion      s     py     pz     px    dxy    dyz    dz2    dxz  x2-y2    tot
    1  0.000  0.000  0.012  0.000  0.000  0.000  0.015  0.000  0.000  0.027
    2  0.000  0.000  0.012  0.000  0.000  0.000  0.014  0.000  0.000  0.026
    3  0.000  0.000  0.003  0.000  0.000  0.000  0.000  0.000  0.000  0.003
    4  0.004  0.000  0.020  0.000  0.000  0.000  0.001  0.000  0.000  0.025
    5  0.000  0.000  0.073  0.001  0.000  0.000  0.000  0.000  0.000  0.074
    6  0.000  0.001  0.073  0.000  0.000  0.000  0.000  0.000  0.000  0.074
    7  0.000  0.001  0.073  0.000  0.000  0.000  0.000  0.000  0.000  0.074
    8  0.001  0.000  0.073  0.001  0.000  0.000  0.000  0.000  0.000  0.074
    9  0.001  0.000  0.073  0.000  0.000  0.000  0.000  0.000  0.000  0.074
   10  0.001  0.001  0.073  0.000  0.000  0.000  0.000  0.000  0.000  0.074
tot    0.006  0.003  0.483  0.003  0.000  0.000  0.030  0.000  0.000  0.526

band    24 # energy   -3.80719949 # occ.  1.00000000

ion      s     py     pz     px    dxy    dyz    dz2    dxz  x2-y2    tot
    1  0.000  0.003  0.000  0.003  0.082  0.060  0.000  0.093  0.137  0.376
    2  0.000  0.000  0.000  0.005  0.231  0.160  0.000  0.001  0.001  0.399
    3  0.000  0.013  0.000  0.004  0.000  0.000  0.000  0.000  0.000  0.017
    4  0.000  0.000  0.000  0.000  0.001  0.000  0.000  0.000  0.000  0.002
    5  0.000  0.007  0.004  0.000  0.001  0.000  0.000  0.000  0.000  0.013
    6  0.001  0.001  0.017  0.000  0.000  0.000  0.000  0.000  0.000  0.020
    7  0.000  0.003  0.004  0.004  0.000  0.000  0.000  0.000  0.001  0.013
    8  0.000  0.000  0.002  0.000  0.001  0.000  0.000  0.000  0.000  0.004
    9  0.000  0.001  0.010  0.000  0.001  0.000  0.000  0.000  0.000  0.014
   10  0.000  0.000  0.003  0.000  0.001  0.000  0.000  0.000  0.000  0.005
tot    0.002  0.029  0.039  0.017  0.319  0.221  0.001  0.094  0.140  0.861

band    25 # energy   -3.80719727 # occ.  1.00000000

ion      s     py     pz     px    dxy    dyz    dz2    dxz  x2-y2    tot
    1  0.000  0.003  0.000  0.003  0.137  0.093  0.000  0.060  0.082  0.376
    2  0.000  0.005  0.000  0.000  0.001  0.001  0.000  0.160  0.231  0.399
    3  0.000  0.004  0.000  0.013  0.000  0.000  0.000  0.000  0.000  0.017
    4  0.000  0.000  0.000  0.000  0.000  0.000  0.000  0.000  0.001  0.002
    5  0.001  0.002  0.013  0.001  0.000  0.000  0.000  0.000  0.000  0.017
    6  0.000  0.002  0.000  0.006  0.000  0.000  0.000  0.000  0.001  0.010
    7  0.001  0.000  0.012  0.004  0.000  0.000  0.000  0.000  0.000  0.017
    8  0.000  0.000  0.008  0.001  0.000  0.000  0.000  0.000  0.001  0.011
    9  0.000  0.000  0.000  0.000  0.000  0.000  0.000  0.000  0.001  0.001
   10  0.000  0.001  0.007  0.000  0.001  0.000  0.000  0.000  0.001  0.010
tot    0.002  0.017  0.039  0.029  0.140  0.094  0.001  0.221  0.319  0.861

band    26 # energy   -3.66716885 # occ.  1.00000000

ion      s     py     pz     px    dxy    dyz    dz2    dxz  x2-y2    tot
    1  0.000  0.001  0.000  0.001  0.106  0.039  0.000  0.113  0.122  0.382
    2  0.000  0.000  0.000  0.002  0.215  0.137  0.000  0.006  0.000  0.360
    3  0.000  0.002  0.000  0.007  0.000  0.000  0.000  0.000  0.000  0.009
    4  0.000  0.005  0.000  0.027  0.000  0.000  0.000  0.000  0.001  0.033
    5  0.002  0.002  0.000  0.023  0.000  0.000  0.000  0.000  0.001  0.029
    6  0.000  0.001  0.000  0.008  0.000  0.000  0.000  0.000  0.000  0.009
    7  0.002  0.008  0.000  0.013  0.001  0.000  0.000  0.000  0.000  0.025
    8  0.002  0.002  0.002  0.003  0.000  0.000  0.001  0.000  0.000  0.009
    9  0.000  0.002  0.000  0.008  0.000  0.000  0.000  0.000  0.001  0.010
   10  0.002  0.000  0.001  0.006  0.000  0.000  0.001  0.000  0.000  0.010
tot    0.007  0.023  0.004  0.098  0.322  0.177  0.002  0.118  0.126  0.877

band    27 # energy   -3.66715651 # occ.  1.00000000

ion      s     py     pz     px    dxy    dyz    dz2    dxz  x2-y2    tot
    1  0.000  0.001  0.000  0.001  0.122  0.113  0.000  0.039  0.106  0.382
    2  0.000  0.002  0.000  0.000  0.000  0.006  0.000  0.137  0.215  0.360
    3  0.000  0.007  0.000  0.002  0.000  0.000  0.000  0.000  0.000  0.009
    4  0.000  0.027  0.000  0.005  0.001  0.000  0.000  0.000  0.000  0.033
    5  0.000  0.007  0.000  0.005  0.000  0.000  0.000  0.000  0.000  0.013
    6  0.002  0.022  0.001  0.006  0.001  0.000  0.001  0.000  0.000  0.033
    7  0.001  0.015  0.000  0.000  0.001  0.000  0.000  0.000  0.000  0.017
    8  0.000  0.008  0.000  0.001  0.001  0.000  0.000  0.000  0.000  0.010
    9  0.002  0.003  0.002  0.000  0.000  0.000  0.001  0.000  0.000  0.009
   10  0.001  0.005  0.001  0.003  0.000  0.000  0.000  0.000  0.001  0.010
tot    0.007  0.098  0.004  0.023  0.126  0.118  0.002  0.177  0.322  0.877

band    28 # energy   -3.64158655 # occ.  1.00000000

ion      s     py     pz     px    dxy    dyz    dz2    dxz  x2-y2    tot
    1  0.014  0.000  0.000  0.000  0.000  0.000  0.426  0.000  0.000  0.440
    2  0.013  0.000  0.000  0.000  0.000  0.000  0.444  0.000  0.000  0.458
    3  0.000  0.000  0.000  0.000  0.000  0.000  0.000  0.000  0.000  0.000
    4  0.000  0.000  0.000  0.000  0.000  0.000  0.000  0.000  0.000  0.000
    5  0.000  0.003  0.000  0.000  0.000  0.000  0.000  0.000  0.000  0.004
    6  0.000  0.001  0.000  0.002  0.000  0.000  0.000  0.000  0.000  0.004
    7  0.000  0.001  0.000  0.002  0.000  0.000  0.000  0.000  0.000  0.004
    8  0.000  0.003  0.000  0.000  0.000  0.001  0.000  0.000  0.000  0.003
    9  0.000  0.001  0.000  0.002  0.000  0.000  0.000  0.000  0.000  0.003
   10  0.000  0.001  0.000  0.002  0.000  0.000  0.000  0.000  0.000  0.003
tot    0.027  0.009  0.000  0.009  0.000  0.001  0.871  0.001  0.000  0.919

band    29 # energy   -3.47805959 # occ.  1.00000000

ion      s     py     pz     px    dxy    dyz    dz2    dxz  x2-y2    tot
    1  0.016  0.000  0.000  0.000  0.000  0.000  0.281  0.000  0.000  0.297
    2  0.016  0.000  0.000  0.000  0.000  0.000  0.262  0.000  0.000  0.279
    3  0.002  0.000  0.045  0.000  0.000  0.000  0.000  0.000  0.000  0.047
    4  0.002  0.000  0.038  0.000  0.000  0.000  0.002  0.000  0.000  0.042
    5  0.002  0.000  0.008  0.002  0.000  0.000  0.001  0.000  0.000  0.013
    6  0.002  0.001  0.008  0.000  0.000  0.000  0.001  0.000  0.000  0.013
    7  0.002  0.001  0.008  0.000  0.000  0.000  0.001  0.000  0.000  0.013
    8  0.002  0.000  0.026  0.000  0.000  0.000  0.001  0.000  0.000  0.030
    9  0.002  0.000  0.026  0.000  0.000  0.000  0.001  0.000  0.000  0.030
   10  0.002  0.000  0.026  0.000  0.000  0.000  0.001  0.000  0.000  0.030
tot    0.050  0.002  0.188  0.002  0.000  0.001  0.551  0.001  0.000  0.795

band    30 # energy   -3.33479131 # occ.  1.00000000

ion      s     py     pz     px    dxy    dyz    dz2    dxz  x2-y2    tot
    1  0.000  0.001  0.000  0.022  0.060  0.009  0.000  0.000  0.008  0.099
    2  0.000  0.002  0.000  0.020  0.065  0.005  0.000  0.004  0.002  0.099
    3  0.000  0.000  0.000  0.003  0.000  0.000  0.000  0.000  0.000  0.003
    4  0.000  0.000  0.000  0.006  0.000  0.000  0.000  0.000  0.004  0.011
    5  0.001  0.009  0.008  0.036  0.000  0.000  0.000  0.000  0.001  0.054
    6  0.000  0.017  0.001  0.110  0.000  0.000  0.000  0.001  0.000  0.129
    7  0.000  0.000  0.004  0.087  0.000  0.000  0.000  0.000  0.000  0.092
    8  0.001  0.007  0.018  0.019  0.000  0.000  0.000  0.000  0.001  0.046
    9  0.000  0.017  0.001  0.089  0.000  0.000  0.000  0.000  0.000  0.107
   10  0.000  0.001  0.010  0.065  0.000  0.000  0.000  0.000  0.000  0.077
tot    0.002  0.055  0.042  0.457  0.125  0.014  0.000  0.006  0.016  0.718

band    31 # energy   -3.33477119 # occ.  1.00000000

ion      s     py     pz     px    dxy    dyz    dz2    dxz  x2-y2    tot
    1  0.000  0.022  0.000  0.001  0.008  0.000  0.000  0.009  0.060  0.099
    2  0.000  0.020  0.000  0.002  0.002  0.004  0.000  0.005  0.065  0.099
    3  0.000  0.003  0.000  0.000  0.000  0.000  0.000  0.000  0.000  0.003
    4  0.000  0.006  0.000  0.000  0.004  0.000  0.000  0.000  0.000  0.011
    5  0.000  0.125  0.001  0.002  0.000  0.001  0.000  0.000  0.000  0.129
    6  0.001  0.045  0.008  0.000  0.001  0.000  0.000  0.000  0.000  0.055
    7  0.000  0.063  0.004  0.024  0.000  0.000  0.000  0.000  0.000  0.092
    8  0.000  0.105  0.001  0.001  0.000  0.000  0.000  0.000  0.000  0.108
    9  0.001  0.027  0.018  0.000  0.000  0.000  0.000  0.000  0.000  0.046