<?xml version="1.0" encoding="ISO-8859-1"?>
<modeling>
 <generator>
  <i name="program" type="string">vasp </i>
  <i name="version" type="string">5.4.4.18Apr17-6-g9f103f2a35  </i>
  <i name="subversion" type="string">(build May  1 2020 15:48:39) complex            parallel </i>
  <i name="platform" type="string">LinuxGNU </i>
  <i name="date" type="string">2020 06 18 </i>
  <i name="time" type="string">09:02:10 </i>
 </generator>
 <incar>
  <i type="int" name="ISTART">     1</i>
  <i type="string" name="PREC">accurate</i>
  <i type="string" name="ALGO"> Normal</i>
  <i type="int" name="ISPIN">     2</i>
  <i name="AMIN">      0.01000000</i>
  <i type="int" name="NELM">   400</i>
  <i type="int" name="IBRION">     2</i>
  <i name="EDIFF">      0.00010000</i>
  <i type="int" name="NSW">    99</i>
  <i type="int" name="ISIF">     3</i>
  <i name="ENCUT">    520.00000000</i>
  <v name="MAGMOM">      5.00000000      5.00000000      0.60000000      0.60000000      0.60000000      0.60000000      0.60000000      0.60000000      0.60000000      0.60000000</v>
  <i type="string" name="LREAL"> Auto</i>
  <i type="int" name="ISMEAR">    -5</i>
  <i name="SIGMA">      0.05000000</i>
  <i type="logical" name="LWAVE"> F  </i>
  <i type="int" name="LORBIT">    11</i>
  <v type="int" name="KPOINT_BSE">    -1     0     0     0</v>
  <i type="int" name="NELM">   400</i>
  <i type="string" name="GGA"> Bo</i>
  <i name="PARAM1">      0.18333333</i>
  <i name="PARAM2">      0.22000000</i>
  <i type="logical" name="LUSE_VDW"> T  </i>
  <i name="AGGAC">      0.00000000</i>
 </incar>
 <structure name="primitive_cell" >
  <crystal>
   <varray name="basis" >
    <v>       6.90777700      -0.00000000       0.00000000 </v>
    <v>       3.45388800       5.98231000       0.00000000 </v>
    <v>       0.00000000       0.00000000      23.44458800 </v>
   </varray>
   <i name="volume">    968.83501932 </i>
   <varray name="rec_basis" >
    <v>       0.14476437      -0.08357974       0.00000000 </v>
    <v>       0.00000000       0.16715951      -0.00000000 </v>
    <v>      -0.00000000       0.00000000       0.04265377 </v>
   </varray>
  </crystal>
  <varray name="positions" >
   <v>       0.33333300       0.33333300       0.49992500 </v>
   <v>       0.00042000       0.37322400      -0.42624800 </v>
   <v>      -0.37364300       0.00042000      -0.42624800 </v>
   <v>       0.37322400      -0.37364300      -0.42624800 </v>
   <v>       0.37364300      -0.00042000       0.42624800 </v>
   <v>      -0.37322400       0.37364300       0.42624800 </v>
   <v>      -0.00042000      -0.37322400       0.42624800 </v>
   <v>      -0.33333300      -0.33333300      -0.49992500 </v>
   <v>       0.00000000       0.00000000       0.44821600 </v>
   <v>       0.00000000       0.00000000      -0.44821600 </v>
  </varray>
 </structure>
 <varray name="primitive_index" >
  <v type="int" >        1 </v>
  <v type="int" >        6 </v>
  <v type="int" >        5 </v>
  <v type="int" >        7 </v>
  <v type="int" >        8 </v>
  <v type="int" >       10 </v>
  <v type="int" >        9 </v>
  <v type="int" >        2 </v>
  <v type="int" >        3 </v>
  <v type="int" >        4 </v>
 </varray>
 <kpoints>
  <generation param="Gamma">
   <v type="int" name="divisions">       5        5        1 </v>
   <v name="usershift">      0.00000000       0.00000000       0.00000000 </v>
   <v name="genvec1">      0.20000000       0.00000000       0.00000000 </v>
   <v name="genvec2">      0.00000000       0.20000000       0.00000000 </v>
   <v name="genvec3">      0.00000000       0.00000000       1.00000000 </v>
   <v name="shift">      0.00000000       0.00000000       0.00000000 </v>
  </generation>
  <varray name="kpointlist" >
   <v>       0.00000000       0.00000000       0.00000000 </v>
   <v>       0.20000000       0.00000000       0.00000000 </v>
   <v>       0.40000000       0.00000000       0.00000000 </v>
   <v>       0.40000000       0.20000000       0.00000000 </v>
   <v>      -0.40000000       0.20000000       0.00000000 </v>
  </varray>
  <varray name="weights" >
   <v>       0.04000000 </v>
   <v>       0.24000000 </v>
   <v>       0.24000000 </v>
   <v>       0.24000000 </v>
   <v>       0.24000000 </v>
  </varray>
  <varray name="tetrahedronlist"  type="int" >
   <v type="int" >        6        1        1        2        2 </v>
   <v type="int" >       12        1        2        2        2 </v>
   <v type="int" >       12        2        2        3        4 </v>
   <v type="int" >       12        2        2        2        4 </v>
   <v type="int" >       12        2        3        3        4 </v>
   <v type="int" >       12        2        3        4        4 </v>
   <v type="int" >        6        2        2        4        4 </v>
   <v type="int" >       12        3        3        3        5 </v>
   <v type="int" >       12        3        3        4        5 </v>
   <v type="int" >       12        3        4        4        5 </v>
   <v type="int" >        6        3        3        5        5 </v>
   <v type="int" >       12        3        4        5        5 </v>
   <v type="int" >        6        4        4        5        5 </v>
   <v type="int" >       12        4        5        5        5 </v>
   <v type="int" >        6        5        5        5        5 </v>
  </varray>
  <i name="volumeweight">      0.00666667 </i>
 </kpoints>
 <parameters>
  <separator name="general" >
   <i type="string" name="SYSTEM">unknown system</i>
   <i type="logical" name="LCOMPAT"> F  </i>
  </separator>
  <separator name="electronic" >
   <i type="string" name="PREC">accura</i>
   <i name="ENMAX">    520.00000000</i>
   <i name="ENAUG">    446.84200000</i>
   <i name="EDIFF">      0.00010000</i>
   <i type="int" name="IALGO">    38</i>
   <i type="int" name="IWAVPR">    11</i>
   <i type="int" name="NBANDS">    48</i>
   <i name="NELECT">     57.00000000</i>
   <i type="int" name="TURBO">     0</i>
   <i type="int" name="IRESTART">     0</i>
   <i type="int" name="NREBOOT">     0</i>
   <i type="int" name="NMIN">     0</i>
   <i name="EREF">      0.00000000</i>
   <separator name="electronic smearing" >
    <i type="int" name="ISMEAR">    -5</i>
    <i name="SIGMA">      0.05000000</i>
    <i name="KSPACING">      0.50000000</i>
    <i type="logical" name="KGAMMA"> T  </i>
   </separator>
   <separator name="electronic projectors" >
    <i type="logical" name="LREAL"> T  </i>
    <v name="ROPT">     -0.00025000     -0.00025000     -0.00025000     -0.00025000</v>
    <i type="int" name="LMAXPAW">  -100</i>
    <i type="int" name="LMAXMIX">     2</i>
    <i type="logical" name="NLSPLINE"> F  </i>
   </separator>
   <separator name="electronic startup" >
    <i type="int" name="ISTART">     0</i>
    <i type="int" name="ICHARG">     2</i>
    <i type="int" name="INIWAV">     1</i>
   </separator>
   <separator name="electronic spin" >
    <i type="int" name="ISPIN">     2</i>
    <i type="logical" name="LNONCOLLINEAR"> F  </i>
    <v name="MAGMOM">      5.00000000      5.00000000      0.60000000      0.60000000      0.60000000      0.60000000      0.60000000      0.60000000      0.60000000      0.60000000</v>
    <i name="NUPDOWN">     -1.00000000</i>
    <i type="logical" name="LSORBIT"> F  </i>
    <v name="SAXIS">      0.00000000      0.00000000      1.00000000</v>
    <i type="logical" name="LSPIRAL"> F  </i>
    <v name="QSPIRAL">      0.00000000      0.00000000      0.00000000</v>
    <i type="logical" name="LZEROZ"> F  </i>
   </separator>
   <separator name="electronic exchange-correlation" >
    <i type="logical" name="LASPH"> F  </i>
    <i type="logical" name="LMETAGGA"> F  </i>
   </separator>
   <separator name="electronic convergence" >
    <i type="int" name="NELM">   400</i>
    <i type="int" name="NELMDL">     0</i>
    <i type="int" name="NELMIN">     2</i>
    <i name="ENINI">    520.00000000</i>
    <separator name="electronic convergence detail" >
     <i type="logical" name="LDIAG"> T  </i>
     <i type="logical" name="LSUBROT"> F  </i>
     <i name="WEIMIN">      0.00100000</i>
     <i name="EBREAK">      0.00000052</i>
     <i name="DEPER">      0.30000000</i>
     <i type="int" name="NRMM">     4</i>
     <i name="TIME">      0.40000000</i>
    </separator>
   </separator>
   <separator name="electronic mixer" >
    <i name="AMIX">      0.40000000</i>
    <i name="BMIX">      1.00000000</i>
    <i name="AMIN">      0.01000000</i>
    <i name="AMIX_MAG">      1.60000000</i>
    <i name="BMIX_MAG">      1.00000000</i>
    <separator name="electronic mixer details" >
     <i type="int" name="IMIX">     4</i>
     <i type="logical" name="MIXFIRST"> F  </i>
     <i type="int" name="MAXMIX">   -45</i>
     <i name="WC">    100.00000000</i>
     <i type="int" name="INIMIX">     1</i>
     <i type="int" name="MIXPRE">     1</i>
     <i type="int" name="MREMOVE">     5</i>
    </separator>
   </separator>
   <separator name="electronic dipolcorrection" >
    <i type="logical" name="LDIPOL"> F  </i>
    <i type="logical" name="LMONO"> F  </i>
    <i type="int" name="IDIPOL">     0</i>
    <i name="EPSILON">      1.00000000</i>
    <v name="DIPOL">   -100.00000000   -100.00000000   -100.00000000</v>
    <i name="EFIELD">      0.00000000</i>
   </separator>
  </separator>
  <separator name="grids" >
   <i type="int" name="NGX">    54</i>
   <i type="int" name="NGY">    54</i>
   <i type="int" name="NGZ">   180</i>
   <i type="int" name="NGXF">   108</i>
   <i type="int" name="NGYF">   108</i>
   <i type="int" name="NGZF">   360</i>
   <i type="logical" name="ADDGRID"> F  </i>
  </separator>
  <separator name="ionic" >
   <i type="int" name="NSW">    99</i>
   <i type="int" name="IBRION">     2</i>
   <i type="int" name="MDALGO">     0</i>
   <i type="int" name="ISIF">     3</i>
   <i name="PSTRESS">      0.00000000</i>
   <i name="EDIFFG">      0.00100000</i>
   <i type="int" name="NFREE">     1</i>
   <i name="POTIM">      0.50000000</i>
   <i name="SMASS">     -3.00000000</i>
   <i name="SCALEE">      1.00000000</i>
  </separator>
  <separator name="ionic md" >
   <i name="TEBEG">      0.00010000</i>
   <i name="TEEND">      0.00010000</i>
   <i type="int" name="NBLOCK">     1</i>
   <i type="int" name="KBLOCK">    99</i>
   <i type="int" name="NPACO">   256</i>
   <i name="APACO">     16.00000000</i>
  </separator>
  <separator name="symmetry" >
   <i type="int" name="ISYM">     2</i>
   <i name="SYMPREC">      0.00001000</i>
  </separator>
  <separator name="dos" >
   <i type="int" name="LORBIT">    11</i>
   <v name="RWIGS">     -1.00000000     -1.00000000     -1.00000000     -1.00000000</v>
   <i type="int" name="NEDOS">   301</i>
   <i name="EMIN">     10.00000000</i>
   <i name="EMAX">    -10.00000000</i>
   <i name="EFERMI">      0.00000000</i>
  </separator>
  <separator name="writing" >
   <i type="int" name="NWRITE">     2</i>
   <i type="logical" name="LWAVE"> F  </i>
   <i type="logical" name="LDOWNSAMPLE"> F  </i>
   <i type="logical" name="LCHARG"> T  </i>
   <i type="logical" name="LPARD"> F  </i>
   <i type="logical" name="LVTOT"> F  </i>
   <i type="logical" name="LVHAR"> F  </i>
   <i type="logical" name="LELF"> F  </i>
   <i type="logical" name="LOPTICS"> F  </i>
   <v name="STM">      0.00000000      0.00000000      0.00000000      0.00000000      0.00000000      0.00000000      0.00000000</v>
  </separator>
  <separator name="performance" >
   <i type="int" name="NPAR">    16</i>
   <i type="int" name="NSIM">     4</i>
   <i type="int" name="NBLK">    -1</i>
   <i type="logical" name="LPLANE"> T  </i>
   <i type="logical" name="LSCALAPACK"> T  </i>
   <i type="logical" name="LSCAAWARE"> F  </i>
   <i type="logical" name="LSCALU"> F  </i>
   <i type="logical" name="LASYNC"> F  </i>
   <i type="logical" name="LORBITALREAL"> F  </i>
  </separator>
  <separator name="miscellaneous" >
   <i type="int" name="IDIOT">     3</i>
   <i type="int" name="ISPECIAL">     0</i>
   <i type="logical" name="LMUSIC"> F  </i>
   <v name="POMASS">     51.99600000     30.97400000     72.61000000     78.96000000</v>
   <v name="DARWINR">      0.00000000      0.00000000      0.00000000      0.00000000</v>
   <v name="DARWINV">      1.00000000      1.00000000      1.00000000      1.00000000</v>
   <i type="logical" name="LCORR"> T  </i>
  </separator>
  <i type="logical" name="GGA_COMPAT"> T  </i>
  <i type="logical" name="LBERRY"> F  </i>
  <i type="int" name="ICORELEVEL">     0</i>
  <i type="logical" name="LDAU"> F  </i>
  <i type="int" name="I_CONSTRAINED_M">     0</i>
  <separator name="electronic exchange-correlation" >
   <i type="string" name="GGA">BO</i>
   <i type="int" name="VOSKOWN">     0</i>
   <i type="logical" name="LHFCALC"> F  </i>
   <i type="string" name="PRECFOCK"></i>
   <i type="logical" name="LSYMGRAD"> F  </i>
   <i type="logical" name="LHFONE"> F  </i>
   <i type="logical" name="LRHFCALC"> F  </i>
   <i type="logical" name="LTHOMAS"> F  </i>
   <i type="logical" name="LMODELHF"> F  </i>
   <i name="ENCUT4O">     -1.00000000</i>
   <i type="int" name="EXXOEP">     0</i>
   <i type="int" name="FOURORBIT">     0</i>
   <i name="AEXX">      0.00000000</i>
   <i name="HFALPHA">      0.00000000</i>
   <i name="MCALPHA">      0.00000000</i>
   <i name="ALDAX">      1.00000000</i>
   <i name="AGGAX">      1.00000000</i>
   <i name="ALDAC">      1.00000000</i>
   <i name="AGGAC">      0.00000000</i>
   <i type="int" name="NKREDX">     1</i>
   <i type="int" name="NKREDY">     1</i>
   <i type="int" name="NKREDZ">     1</i>
   <i type="logical" name="SHIFTRED"> F  </i>
   <i type="logical" name="ODDONLY"> F  </i>
   <i type="logical" name="EVENONLY"> F  </i>
   <i type="int" name="LMAXFOCK">     0</i>
   <i type="int" name="NMAXFOCKAE">     0</i>
   <i type="logical" name="LFOCKAEDFT"> F  </i>
   <i name="HFSCREEN">      0.00000000</i>
   <i name="HFSCREENC">      0.00000000</i>
   <i type="int" name="NBANDSGWLOW">     0</i>
  </separator>
  <separator name="vdW DFT" >
   <i type="logical" name="LUSE_VDW"> T  </i>
   <i name="Zab_VDW">     -0.84910000</i>
   <i name="PARAM1">      0.18333333</i>
   <i name="PARAM2">      0.22000000</i>
   <i name="PARAM3">      0.00000000</i>
  </separator>
  <separator name="model GW" >
   <i type="int" name="MODEL_GW">     0</i>
   <i name="MODEL_EPS0">     58.13010116</i>
   <i name="MODEL_ALPHA">      1.00000000</i>
  </separator>
  <separator name="linear response parameters" >
   <i type="logical" name="LEPSILON"> F  </i>
   <i type="logical" name="LRPA"> F  </i>
   <i type="logical" name="LNABLA"> F  </i>
   <i type="logical" name="LVEL"> F  </i>
   <i type="int" name="KINTER">     0</i>
   <i name="CSHIFT">      0.10000000</i>
   <i name="OMEGAMAX">     -1.00000000</i>
   <i name="DEG_THRESHOLD">      0.00200000</i>
   <i name="RTIME">     -0.10000000</i>
   <i name="WPLASMAI">      0.00000000</i>
   <v name="DFIELD">      0.00000000      0.00000000      0.00000000</v>
   <v name="WPLASMA">      0.00000000      0.00000000      0.00000000      0.00000000      0.00000000      0.00000000      0.00000000      0.00000000      0.00000000</v>
  </separator>
  <separator name="orbital magnetization" >
   <i type="logical" name="NUCIND"> F  </i>
   <v name="MAGPOS">      0.00000000      0.00000000      0.00000000</v>
   <i type="logical" name="LNICSALL"> T  </i>
   <i type="logical" name="ORBITALMAG"> F  </i>
   <i type="logical" name="LMAGBLOCH"> F  </i>
   <i type="logical" name="LCHIMAG"> F  </i>
   <i type="logical" name="LGAUGE"> T  </i>
   <i type="int" name="MAGATOM">     0</i>
   <v name="MAGDIPOL">      0.00000000      0.00000000      0.00000000</v>
   <v name="AVECCONST">      0.00000000      0.00000000      0.00000000</v>
  </separator>
  <separator name="response functions" >
   <i type="logical" name="LADDER"> F  </i>
   <i type="logical" name="LRPAFORCE"> F  </i>
   <i type="logical" name="LFXC"> F  </i>
   <i type="logical" name="LHARTREE"> T  </i>
   <i type="int" name="IBSE">     0</i>
   <v type="int" name="KPOINT">    -1     0     0     0</v>
   <i type="logical" name="LTCTE"> F  </i>
   <i type="logical" name="LTETE"> F  </i>
   <i type="logical" name="LTRIPLET"> F  </i>
   <i type="logical" name="LFXCEPS"> F  </i>
   <i type="logical" name="LFXHEG"> F  </i>
   <i type="int" name="NATURALO">     2</i>
   <i type="logical" name="L2ORDER"> F  </i>
   <i type="logical" name="LMP2LT"> F  </i>
   <i type="logical" name="LUSEW"> F  </i>
   <i name="ENCUTGW">     -2.00000000</i>
   <i name="ENCUTGWSOFT">     -2.00000000</i>
   <i name="ENCUTLF">     -1.00000000</i>
   <i type="int" name="LMAXMP2">    -1</i>
   <i name="SCISSOR">      0.00000000</i>
   <i type="int" name="NOMEGA">     0</i>
   <i type="int" name="NOMEGAR">     0</i>
   <i type="int" name="NBANDSGW">    -1</i>
   <i type="int" name="NBANDSO">    -1</i>
   <i type="int" name="NBANDSV">    -1</i>
   <i type="int" name="NELM">   400</i>
   <i type="int" name="NELMHF">     1</i>
   <i type="int" name="DIM">     3</i>
   <i type="int" name="ANTIRES">     0</i>
   <i name="OMEGAMAX">    -30.00000000</i>
   <i name="OMEGAMIN">    -30.00000000</i>
   <i name="OMEGATL">   -200.00000000</i>
   <i type="int" name="OMEGAGRID">   140</i>
   <i name="CSHIFT">     -0.10000000</i>
   <i type="logical" name="SELFENERGY"> F  </i>
   <i type="logical" name="LSPECTRAL"> F  </i>
   <i type="logical" name="LSPECTRALGW"> F  </i>
   <i type="logical" name="LSINGLES"> F  </i>
   <i type="logical" name="LFERMIGW"> F  </i>
   <i type="logical" name="ODDONLYGW"> F  </i>
   <i type="logical" name="EVENONLYGW"> F  </i>
   <i type="int" name="NKREDLFX">     1</i>
   <i type="int" name="NKREDLFY">     1</i>
   <i type="int" name="NKREDLFZ">     1</i>
   <i type="int" name="MAXMEM">  2800</i>
   <i type="int" name="TELESCOPE">     0</i>
   <i type="int" name="TAUPAR">     1</i>
   <i type="int" name="OMEGAPAR">    -1</i>
   <i name="LAMBDA">      1.00000000</i>
  </separator>
  <separator name="External order field" >
   <i name="OFIELD_KAPPA">      0.00000000</i>
   <v name="OFIELD_K">      0.00000000      0.00000000      0.00000000</v>
   <i name="OFIELD_Q6_NEAR">      0.00000000</i>
   <i name="OFIELD_Q6_FAR">      0.00000000</i>
   <i name="OFIELD_A">      0.00000000</i>
  </separator>
 </parameters>
 <atominfo>
  <atoms>      10 </atoms>
  <types>       4 </types>
  <array name="atoms" >
   <dimension dim="1">ion</dimension>
   <field type="string">element</field>
   <field type="int">atomtype</field>
   <set>
    <rc><c>Cr</c><c>   1</c></rc>
    <rc><c>Cr</c><c>   1</c></rc>
    <rc><c>P </c><c>   2</c></rc>
    <rc><c>Ge</c><c>   3</c></rc>
    <rc><c>Se</c><c>   4</c></rc>
    <rc><c>Se</c><c>   4</c></rc>
    <rc><c>Se</c><c>   4</c></rc>
    <rc><c>Se</c><c>   4</c></rc>
    <rc><c>Se</c><c>   4</c></rc>
    <rc><c>Se</c><c>   4</c></rc>
   </set>
  </array>
  <array name="atomtypes" >
   <dimension dim="1">type</dimension>
   <field type="int">atomspertype</field>
   <field type="string">element</field>
   <field>mass</field>
   <field>valence</field>
   <field type="string">pseudopotential</field>
   <set>
    <rc><c>   2</c><c>Cr</c><c>     51.99600000</c><c>      6.00000000</c><c> PAW_PBE Cr 06Sep2000                   </c></rc>
    <rc><c>   1</c><c>P </c><c>     30.97400000</c><c>      5.00000000</c><c>  PAW_PBE P 17Jan2003                   </c></rc>
    <rc><c>   1</c><c>Ge</c><c>     72.61000000</c><c>      4.00000000</c><c> PAW_PBE Ge 05Jan2001                   </c></rc>
    <rc><c>   6</c><c>Se</c><c>     78.96000000</c><c>      6.00000000</c><c> PAW_PBE Se 06Sep2000                   </c></rc>
   </set>
  </array>
 </atominfo>
 <structure name="initialpos" >
  <crystal>
   <varray name="basis" >
    <v>       6.90777700      -0.00000000       0.00000000 </v>
    <v>       3.45388800       5.98231000       0.00000000 </v>
    <v>       0.00000000       0.00000000      23.44458800 </v>
   </varray>
   <i name="volume">    968.83501932 </i>
   <varray name="rec_basis" >
    <v>       0.14476437      -0.08357974       0.00000000 </v>
    <v>       0.00000000       0.16715951      -0.00000000 </v>
    <v>      -0.00000000       0.00000000       0.04265377 </v>
   </varray>
  </crystal>
  <varray name="positions" >
   <v>       0.33333300       0.33333300       0.49992500 </v>
   <v>       0.66666700       0.66666700       0.50007500 </v>
   <v>       0.00000000       0.00000000       0.44821600 </v>
   <v>       0.00000000       0.00000000       0.55178400 </v>
   <v>       0.62635700       0.00042000       0.57375200 </v>
   <v>       0.00042000       0.37322400       0.57375200 </v>
   <v>       0.37322400       0.62635700       0.57375200 </v>
   <v>       0.37364300       0.99958000       0.42624800 </v>
   <v>       0.99958000       0.62677600       0.42624800 </v>
   <v>       0.62677600       0.37364300       0.42624800 </v>
  </varray>
  <varray name="selective"  type="logical" >
   <v type="logical" >  F  F  F </v>
   <v type="logical" >  F  F  F </v>
   <v type="logical" >  T  T  T </v>
   <v type="logical" >  F  F  F </v>
   <v type="logical" >  T  T  T </v>
   <v type="logical" >  T  T  T </v>
   <v type="logical" >  T  T  T </v>
   <v type="logical" >  T  T  T </v>
   <v type="logical" >  T  T  T </v>
   <v type="logical" >  T  T  T </v>
  </varray>
  <nose>
   <v>      -3.00000000       0.00000000       0.00010000       0.00010000 </v>
  </nose>
 </structure>
 <calculation>
  <scstep>
   <time name="dav">   22.46   22.70</time>
   <time name="total">   75.55   76.19</time>
   <energy>
    <i name="alphaZ">     32.59752184 </i>
    <i name="ewald">   6221.61188061 </i>
    <i name="hartreedc">  -8315.35165852 </i>
    <i name="XCdc">    -51.41176430 </i>
    <i name="pawpsdc">   1173.03776633 </i>
    <i name="pawaedc">  -1020.98751441 </i>
    <i name="eentropy">      0.00000000 </i>
    <i name="bandstr">    -20.98776590 </i>
    <i name="atom">   2388.97348331 </i>
    <i name="e_fr_energy">    407.48194896 </i>
    <i name="e_wo_entrp">    407.48194896 </i>
    <i name="e_0_energy">    407.48194896 </i>
   </energy>
  </scstep>
  <scstep>
   <time name="dav">   26.36   27.17</time>
   <time name="total">   26.36   27.18</time>
   <energy>
    <i name="e_fr_energy">     30.42680563 </i>
    <i name="e_wo_entrp">     30.42680563 </i>
    <i name="e_0_energy">     30.42680563 </i>
   </energy>
  </scstep>
  <scstep>
   <time name="dav">   30.92   31.22</time>
   <time name="total">   30.93   31.22</time>
   <energy>
    <i name="e_fr_energy">    -45.40701254 </i>
    <i name="e_wo_entrp">    -45.40701254 </i>
    <i name="e_0_energy">    -45.40701254 </i>
   </energy>
  </scstep>
  <scstep>
   <time name="dav">   29.77   29.83</time>
   <time name="total">   29.78   29.84</time>
   <energy>
    <i name="e_fr_energy">    -49.18924583 </i>
    <i name="e_wo_entrp">    -49.18924583 </i>
    <i name="e_0_energy">    -49.18924583 </i>
   </energy>
  </scstep>
  <scstep>
   <time name="dav">   29.92   30.14</time>
   <time name="total">   31.92   32.15</time>
   <energy>
    <i name="e_fr_energy">    -49.29771187 </i>
    <i name="e_wo_entrp">    -49.29771187 </i>
    <i name="e_0_energy">    -49.29771187 </i>
   </energy>
  </scstep>
  <scstep>
   <time name="dav">   30.48   31.57</time>
   <time name="total">   84.44   86.23</time>
   <energy>
    <i name="e_fr_energy">    -92.01016243 </i>
    <i name="e_wo_entrp">    -92.01016243 </i>
    <i name="e_0_energy">    -92.01016243 </i>
   </energy>
  </scstep>
  <scstep>
   <time name="dav">   30.40   31.12</time>
   <time name="total">   83.82   85.29</time>
   <energy>
    <i name="e_fr_energy">    -44.84240631 </i>
    <i name="e_wo_entrp">    -44.84240631 </i>
    <i name="e_0_energy">    -44.84240631 </i>
   </energy>
  </scstep>
  <scstep>
   <time name="dav">   32.11   32.88</time>
   <time name="total">   85.52   86.78</time>
   <energy>
    <i name="e_fr_energy">   -294.43206142 </i>
    <i name="e_wo_entrp">   -294.43206142 </i>
    <i name="e_0_energy">   -294.43206142 </i>
   </energy>
  </scstep>
  <scstep>
   <time name="dav">   23.89   25.30</time>
   <time name="total">   76.84   79.45</time>
   <energy>
    <i name="e_fr_energy">    -41.88935235 </i>
    <i name="e_wo_entrp">    -41.88935235 </i>
    <i name="e_0_energy">    -41.88935235 </i>
   </energy>
  </scstep>
  <scstep>
   <time name="dav">   26.10   26.30</time>
   <time name="total">   78.93   79.47</time>
   <energy>
    <i name="e_fr_energy">    -43.63020765 </i>
    <i name="e_wo_entrp">    -43.63020765 </i>
    <i name="e_0_energy">    -43.63020765 </i>
   </energy>
  </scstep>
  <scstep>
   <time name="dav">   32.96   33.26</time>
   <time name="total">   85.58   86.16</time>
   <energy>
    <i name="e_fr_energy">    -44.40234005 </i>
    <i name="e_wo_entrp">    -44.40234005 </i>
    <i name="e_0_energy">    -44.40234005 </i>
   </energy>
  </scstep>
  <scstep>
   <time name="dav">   33.76   34.00</time>
   <time name="total">   86.38   86.82</time>
   <energy>
    <i name="e_fr_energy">    -45.05991555 </i>
    <i name="e_wo_entrp">    -45.05991555 </i>
    <i name="e_0_energy">    -45.05991555 </i>
   </energy>
  </scstep>
  <scstep>
   <time name="dav">   27.57   27.69</time>
   <time name="total">   80.06   81.12</time>
   <energy>
    <i name="e_fr_energy">    -45.26680756 </i>
    <i name="e_wo_entrp">    -45.26680756 </i>
    <i name="e_0_energy">    -45.26680756 </i>
   </energy>
  </scstep>
  <scstep>
   <time name="dav">   25.15   25.38</time>
   <time name="total">   78.08   78.51</time>
   <energy>
    <i name="e_fr_energy">    -45.34621928 </i>
    <i name="e_wo_entrp">    -45.34621928 </i>
    <i name="e_0_energy">    -45.34621928 </i>
   </energy>
  </scstep>
  <scstep>
   <time name="dav">   29.52   29.63</time>
   <time name="total">   82.26   82.69</time>
   <energy>
    <i name="e_fr_energy">    -45.45660652 </i>
    <i name="e_wo_entrp">    -45.45660652 </i>
    <i name="e_0_energy">    -45.45660652 </i>
   </energy>
  </scstep>
  <scstep>
   <time name="dav">   29.82   29.97</time>
   <time name="total">   82.49   83.01</time>
   <energy>
    <i name="e_fr_energy">    -45.48157775 </i>
    <i name="e_wo_entrp">    -45.48157775 </i>
    <i name="e_0_energy">    -45.48157775 </i>
   </energy>
  </scstep>
  <scstep>
   <time name="dav">   25.25   25.36</time>
   <time name="total">   78.04   78.25</time>
   <energy>
    <i name="e_fr_energy">    -45.50118177 </i>
    <i name="e_wo_entrp">    -45.50118177 </i>
    <i name="e_0_energy">    -45.50118177 </i>
   </energy>
  </scstep>
  <scstep>
   <time name="dav">   26.12   26.25</time>
   <time name="total">   79.09   79.38</time>
   <energy>
    <i name="e_fr_energy">    -45.55108721 </i>
    <i name="e_wo_entrp">    -45.55108721 </i>
    <i name="e_0_energy">    -45.55108721 </i>
   </energy>
  </scstep>
  <scstep>
   <time name="dav">   27.63   27.65</time>
   <time name="total">   80.87   81.01</time>
   <energy>
    <i name="e_fr_energy">    -45.58787472 </i>
    <i name="e_wo_entrp">    -45.58787472 </i>
    <i name="e_0_energy">    -45.58787472 </i>
   </energy>
  </scstep>
  <scstep>
   <time name="dav">   25.51   25.63</time>
   <time name="total">   78.50   78.65</time>
   <energy>
    <i name="e_fr_energy">    -45.61362935 </i>
    <i name="e_wo_entrp">    -45.61362935 </i>
    <i name="e_0_energy">    -45.61362935 </i>
   </energy>
  </scstep>
  <scstep>
   <time name="dav">   26.38   26.45</time>
   <time name="total">   79.48   79.64</time>
   <energy>
    <i name="e_fr_energy">    -45.62143490 </i>
    <i name="e_wo_entrp">    -45.62143490 </i>
    <i name="e_0_energy">    -45.62143490 </i>
   </energy>
  </scstep>
  <scstep>
   <time name="dav">   24.37   24.42</time>
   <time name="total">   77.56   77.69</time>
   <energy>
    <i name="e_fr_energy">    -45.62652937 </i>
    <i name="e_wo_entrp">    -45.62652937 </i>
    <i name="e_0_energy">    -45.62652937 </i>
   </energy>
  </scstep>
  <scstep>
   <time name="dav">   25.85   26.05</time>
   <time name="total">   79.02   79.32</time>
   <energy>
    <i name="e_fr_energy">    -45.63281990 </i>
    <i name="e_wo_entrp">    -45.63281990 </i>
    <i name="e_0_energy">    -45.63281990 </i>
   </energy>
  </scstep>
  <scstep>
   <time name="dav">   27.59   27.76</time>
   <time name="total">   80.70   80.94</time>
   <energy>
    <i name="e_fr_energy">    -45.63768422 </i>
    <i name="e_wo_entrp">    -45.63768422 </i>
    <i name="e_0_energy">    -45.63768422 </i>
   </energy>
  </scstep>
  <scstep>
   <time name="dav">   23.37   23.50</time>
   <time name="total">   76.38   76.70</time>
   <energy>
    <i name="e_fr_energy">    -45.64102029 </i>
    <i name="e_wo_entrp">    -45.64102029 </i>
    <i name="e_0_energy">    -45.64102029 </i>
   </energy>
  </scstep>
  <scstep>
   <time name="dav">   24.35   24.41</time>
   <time name="total">   75.57   75.80</time>
   <energy>
    <i name="alphaZ">     32.59752184 </i>
    <i name="ewald">   6221.61188061 </i>
    <i name="hartreedc">  -8315.12838716 </i>
    <i name="XCdc">    -51.70962711 </i>
    <i name="pawpsdc">   1201.07901040 </i>
    <i name="pawaedc">  -1049.49437889 </i>
    <i name="eentropy">      0.00000000 </i>
    <i name="bandstr">   -473.57050041 </i>
    <i name="atom">   2388.97348331 </i>
    <i name="e_fr_energy">    -45.64099742 </i>
    <i name="e_wo_entrp">    -45.64099742 </i>
    <i name="e_0_energy">    -45.64099742 </i>
   </energy>
  </scstep>
  <structure>
   <crystal>
    <varray name="basis" >
     <v>       6.90777700      -0.00000000       0.00000000 </v>
     <v>       3.45388800       5.98231000       0.00000000 </v>
     <v>       0.00000000       0.00000000      23.44458800 </v>
    </varray>
    <i name="volume">    968.83501932 </i>
    <varray name="rec_basis" >
     <v>       0.14476437      -0.08357974       0.00000000 </v>
     <v>       0.00000000       0.16715951      -0.00000000 </v>
     <v>      -0.00000000       0.00000000       0.04265377 </v>
    </varray>
   </crystal>
   <varray name="positions" >
    <v>       0.33333300       0.33333300       0.49992500 </v>
    <v>       0.66666700       0.66666700       0.50007500 </v>
    <v>       0.00000000       0.00000000       0.44821600 </v>
    <v>       0.00000000       0.00000000       0.55178400 </v>
    <v>       0.62635700       0.00042000       0.57375200 </v>
    <v>       0.00042000       0.37322400       0.57375200 </v>
    <v>       0.37322400       0.62635700       0.57375200 </v>
    <v>       0.37364300       0.99958000       0.42624800 </v>
    <v>       0.99958000       0.62677600       0.42624800 </v>
    <v>       0.62677600       0.37364300       0.42624800 </v>
   </varray>
  </structure>
  <varray name="forces" >
   <v>      -0.00000000      -0.00000000      -0.19006302 </v>
   <v>      -0.00000000      -0.00000000      -0.20109383 </v>
   <v>      -0.00000000      -0.00000000      -0.57208091 </v>
   <v>      -0.00000000      -0.00000000      -0.14858197 </v>
   <v>       0.58809085      -0.00659085      -1.03939926 </v>
   <v>      -0.29975323      -0.50600616      -1.03939926 </v>
   <v>      -0.28833762       0.51259701      -1.03939926 </v>
   <v>      -0.46187261       0.00560044       1.41000583 </v>
   <v>       0.23578639       0.39719317       1.41000583 </v>
   <v>       0.22608622      -0.40279361       1.41000583 </v>
  </varray>
  <varray name="stress" >
   <v>     -31.55540686       0.00000226       0.00000000 </v>
   <v>       0.00000301     -31.55540300       0.00000000 </v>
   <v>       0.00000000       0.00000000     -19.94962794 </v>
  </varray>
  <energy>
   <i name="e_fr_energy">    -45.64099742 </i>
   <i name="e_wo_entrp">    -45.64099742 </i>
   <i name="e_0_energy">      0.00000000 </i>
  </energy>
  <time name="totalsc"> 2032.46 2048.31</time>
 </calculation>
 <calculation>
  <scstep>
   <time name="dav">   28.11   28.14</time>
   <time name="total">   81.79   81.86</time>
   <energy>
    <i name="alphaZ">     41.98605530 </i>
    <i name="ewald">   7365.20999574 </i>
    <i name="hartreedc">  -9615.22005112 </i>
    <i name="XCdc">    -42.65350848 </i>
    <i name="pawpsdc">   1201.09890074 </i>
    <i name="pawaedc">  -1049.51258179 </i>
    <i name="eentropy">      0.00000000 </i>
    <i name="bandstr">   -348.25756659 </i>
    <i name="atom">   2388.97348331 </i>
    <i name="e_fr_energy">    -58.37527288 </i>
    <i name="e_wo_entrp">    -58.37527288 </i>
    <i name="e_0_energy">    -58.37527288 </i>
   </energy>
  </scstep>
  <scstep>
   <time name="dav">   30.95   31.27</time>
   <time name="total">   84.50   85.01</time>
   <energy>
    <i name="e_fr_energy">    -51.72635379 </i>
    <i name="e_wo_entrp">    -51.72635379 </i>
    <i name="e_0_energy">    -51.72635379 </i>
   </energy>
  </scstep>
  <scstep>
   <time name="dav">   33.55   33.67</time>
   <time name="total">   86.90   87.30</time>
   <energy>
    <i name="e_fr_energy">    -50.75375583 </i>
    <i name="e_wo_entrp">    -50.75375583 </i>
    <i name="e_0_energy">    -50.75375583 </i>
   </energy>
  </scstep>
  <scstep>
   <time name="dav">   33.50   33.65</time>
   <time name="total">   86.88   87.33</time>
   <energy>
    <i name="e_fr_energy">    -48.03403462 </i>
    <i name="e_wo_entrp">    -48.03403462 </i>
    <i name="e_0_energy">    -48.03403462 </i>
   </energy>
  </scstep>
  <scstep>
   <time name="dav">   31.70   31.77</time>
   <time name="total">   85.13   85.44</time>
   <energy>
    <i name="e_fr_energy">    -48.02611503 </i>
    <i name="e_wo_entrp">    -48.02611503 </i>
    <i name="e_0_energy">    -48.02611503 </i>
   </energy>
  </scstep>
  <scstep>
   <time name="dav">   31.70   32.07</time>
   <time name="total">   85.24   85.80</time>
   <energy>
    <i name="e_fr_energy">    -48.03128738 </i>
    <i name="e_wo_entrp">    -48.03128738 </i>
    <i name="e_0_energy">    -48.03128738 </i>
   </energy>
  </scstep>
  <scstep>
   <time name="dav">   31.55   31.63</time>
   <time name="total">   85.27   85.44</time>
   <energy>
    <i name="e_fr_energy">    -48.03384749 </i>
    <i name="e_wo_entrp">    -48.03384749 </i>
    <i name="e_0_energy">    -48.03384749 </i>
   </energy>
  </scstep>
  <scstep>
   <time name="dav">   34.20   34.43</time>
   <time name="total">   87.86   88.16</time>
   <energy>
    <i name="e_fr_energy">    -48.03230938 </i>
    <i name="e_wo_entrp">    -48.03230938 </i>
    <i name="e_0_energy">    -48.03230938 </i>
   </energy>
  </scstep>
  <scstep>
   <time name="dav">   26.77   26.99</time>
   <time name="total">   80.28   80.73</time>
   <energy>
    <i name="e_fr_energy">    -48.03435701 </i>
    <i name="e_wo_entrp">    -48.03435701 </i>
    <i name="e_0_energy">    -48.03435701 </i>
   </energy>
  </scstep>
  <scstep>
   <time name="dav">   22.95   23.12</time>
   <time name="total">   76.41   77.02</time>
   <energy>
    <i name="e_fr_energy">    -48.03529203 </i>
    <i name="e_wo_entrp">    -48.03529203 </i>
    <i name="e_0_energy">    -48.03529203 </i>
   </energy>
  </scstep>
  <scstep>
   <time name="dav">   24.71   24.74</time>
   <time name="total">   78.20   78.55</time>
   <energy>
    <i name="e_fr_energy">    -48.03640617 </i>
    <i name="e_wo_entrp">    -48.03640617 </i>
    <i name="e_0_energy">    -48.03640617 </i>
   </energy>
  </scstep>
  <scstep>
   <time name="dav">   25.48   25.49</time>
   <time name="total">   79.30   79.34</time>
   <energy>
    <i name="e_fr_energy">    -48.03672796 </i>
    <i name="e_wo_entrp">    -48.03672796 </i>
    <i name="e_0_energy">    -48.03672796 </i>
   </energy>
  </scstep>
  <scstep>
   <time name="dav">   24.54   24.55</time>
   <time name="total">   78.42   78.46</time>
   <energy>
    <i name="e_fr_energy">    -48.03591727 </i>
    <i name="e_wo_entrp">    -48.03591727 </i>
    <i name="e_0_energy">    -48.03591727 </i>
   </energy>
  </scstep>
  <scstep>
   <time name="dav">   25.41   25.43</time>
   <time name="total">   79.09   79.19</time>
   <energy>
    <i name="e_fr_energy">    -48.03458475 </i>
    <i name="e_wo_entrp">    -48.03458475 </i>
    <i name="e_0_energy">    -48.03458475 </i>
   </energy>
  </scstep>
  <scstep>
   <time name="dav">   20.77   20.87</time>
   <time name="total">   73.99   74.58</time>
   <energy>
    <i name="e_fr_energy">    -48.03390112 </i>
    <i name="e_wo_entrp">    -48.03390112 </i>
    <i name="e_0_energy">    -48.03390112 </i>
   </energy>
  </scstep>
  <scstep>
   <time name="dav">   20.80   20.91</time>
   <time name="total">   74.34   74.78</time>
   <energy>
    <i name="e_fr_energy">    -48.03292322 </i>
    <i name="e_wo_entrp">    -48.03292322 </i>
    <i name="e_0_energy">    -48.03292322 </i>
   </energy>
  </scstep>
  <scstep>
   <time name="dav">   21.12   21.35</time>
   <time name="total">   74.80   75.30</time>
   <energy>
    <i name="e_fr_energy">    -48.03166673 </i>
    <i name="e_wo_entrp">    -48.03166673 </i>
    <i name="e_0_energy">    -48.03166673 </i>
   </energy>
  </scstep>
  <scstep>
   <time name="dav">   21.35   21.44</time>
   <time name="total">   74.94   75.27</time>
   <energy>
    <i name="e_fr_energy">    -48.03128192 </i>
    <i name="e_wo_entrp">    -48.03128192 </i>
    <i name="e_0_energy">    -48.03128192 </i>
   </energy>
  </scstep>
  <scstep>
   <time name="dav">   23.80   23.81</time>
   <time name="total">   75.53   75.56</time>
   <energy>
    <i name="alphaZ">     41.98605530 </i>
    <i name="ewald">   7365.20999574 </i>
    <i name="hartreedc">  -9486.65968483 </i>
    <i name="XCdc">    -47.58226884 </i>
    <i name="pawpsdc">   1310.29214675 </i>
    <i name="pawaedc">  -1160.20081954 </i>
    <i name="eentropy">      0.00000000 </i>
    <i name="bandstr">   -460.05011185 </i>
    <i name="atom">   2388.97348331 </i>
    <i name="e_fr_energy">    -48.03120394 </i>
    <i name="e_wo_entrp">    -48.03120394 </i>
    <i name="e_0_energy">    -48.03120394 </i>
   </energy>
  </scstep>
  <structure>
   <crystal>
    <varray name="basis" >
     <v>       6.27188621       0.00000005       0.00000000 </v>
     <v>       3.13594271       5.43161255       0.00000000 </v>
     <v>       0.00000000       0.00000000      22.08016873 </v>
    </varray>
    <i name="volume">    752.19309049 </i>
    <varray name="rec_basis" >
     <v>       0.15944167      -0.09205368       0.00000000 </v>
     <v>      -0.00000000       0.18410739      -0.00000000 </v>
     <v>      -0.00000000      -0.00000000       0.04528951 </v>
    </varray>
   </crystal>
   <varray name="positions" >
    <v>       0.33333300       0.33333300       0.49992500 </v>
    <v>       0.66666700       0.66666700       0.50007500 </v>
    <v>       0.00000000      -0.00000000       0.44703881 </v>
    <v>       0.00000000       0.00000000       0.55178400 </v>
    <v>       0.63049069       0.00036685       0.57161320 </v>
    <v>       0.00036685       0.36914346       0.57161320 </v>
    <v>       0.36914346       0.63049069       0.57161320 </v>
    <v>       0.37039478       0.99962516       0.42914941 </v>
    <v>       0.99962516       0.62997905       0.42914941 </v>
    <v>       0.62997905       0.37039478       0.42914941 </v>
   </varray>
  </structure>
  <varray name="forces" >
   <v>       0.00000000       0.00000000      -0.07948424 </v>
   <v>       0.00000000      -0.00000000      -0.07496318 </v>
   <v>       0.00000000      -0.00000000      -0.53756054 </v>
   <v>       0.00000000      -0.00000000      -0.20347253 </v>
   <v>      -0.43714807      -0.00265886       0.40885862 </v>
   <v>       0.21627137       0.37991074       0.40885862 </v>
   <v>       0.22087670      -0.37725188       0.40885862 </v>
   <v>      -0.04763636       0.00628199      -0.11036512 </v>
   <v>       0.02925854       0.03811330      -0.11036512 </v>
   <v>       0.01837782      -0.04439529      -0.11036512 </v>
  </varray>
  <varray name="stress" >
   <v>       8.35805158      -0.00000132       0.00000000 </v>
   <v>       0.00000021       8.35805077      -0.00000000 </v>
   <v>       0.00000000       0.00000000       5.97358125 </v>
  </varray>
  <energy>
   <i name="e_fr_energy">    -48.03120394 </i>
   <i name="e_wo_entrp">    -48.03120394 </i>
   <i name="e_0_energy">      0.00000000 </i>
  </energy>
  <time name="totalsc"> 1663.05 1670.70</time>
 </calculation>
 <calculation>
  <scstep>
   <time name="dav">   30.39   30.74</time>
   <time name="total">   83.84   84.50</time>
   <energy>
    <i name="alphaZ">     40.70954408 </i>
    <i name="ewald">   7213.73198932 </i>
    <i name="hartreedc">  -9317.25200143 </i>
    <i name="XCdc">    -48.66349383 </i>
    <i name="pawpsdc">   1310.25623863 </i>
    <i name="pawaedc">  -1160.16508412 </i>
    <i name="eentropy">      0.00000000 </i>
    <i name="bandstr">   -475.83001058 </i>
    <i name="atom">   2388.97348331 </i>
    <i name="e_fr_energy">    -48.23933461 </i>
    <i name="e_wo_entrp">    -48.23933461 </i>
    <i name="e_0_energy">    -48.23933461 </i>
   </energy>
  </scstep>
  <scstep>
   <time name="dav">   30.12   30.22</time>
   <time name="total">   83.62   83.94</time>
   <energy>
    <i name="e_fr_energy">    -48.15489814 </i>
    <i name="e_wo_entrp">    -48.15489814 </i>
    <i name="e_0_energy">    -48.15489814 </i>
   </energy>
  </scstep>
  <scstep>
   <time name="dav">   30.43   30.60</time>
   <time name="total">   83.87   84.23</time>
   <energy>
    <i name="e_fr_energy">    -48.12544252 </i>
    <i name="e_wo_entrp">    -48.12544252 </i>
    <i name="e_0_energy">    -48.12544252 </i>
   </energy>
  </scstep>
  <scstep>
   <time name="dav">   30.50   30.62</time>
   <time name="total">   84.11   84.45</time>
   <energy>
    <i name="e_fr_energy">    -48.09701514 </i>
    <i name="e_wo_entrp">    -48.09701514 </i>
    <i name="e_0_energy">    -48.09701514 </i>
   </energy>
  </scstep>
  <scstep>
   <time name="dav">   30.08   30.25</time>
   <time name="total">   83.55   83.87</time>
   <energy>
    <i name="e_fr_energy">    -48.09586248 </i>
    <i name="e_wo_entrp">    -48.09586248 </i>
    <i name="e_0_energy">    -48.09586248 </i>
   </energy>
  </scstep>
  <scstep>
   <time name="dav">   25.36   25.39</time>
   <time name="total">   79.03   79.28</time>
   <energy>
    <i name="e_fr_energy">    -48.09568331 </i>
    <i name="e_wo_entrp">    -48.09568331 </i>
    <i name="e_0_energy">    -48.09568331 </i>
   </energy>
  </scstep>
  <scstep>
   <time name="dav">   22.30   22.46</time>
   <time name="total">   73.95   74.16</time>
   <energy>
    <i name="alphaZ">     40.70954408 </i>
    <i name="ewald">   7213.73198932 </i>
    <i name="hartreedc">  -9329.07395701 </i>
    <i name="XCdc">    -48.19194573 </i>
    <i name="pawpsdc">   1293.59595723 </i>
    <i name="pawaedc">  -1143.25902539 </i>
    <i name="eentropy">      0.00000000 </i>
    <i name="bandstr">   -464.58175047 </i>
    <i name="atom">   2388.97348331 </i>
    <i name="e_fr_energy">    -48.09570466 </i>
    <i name="e_wo_entrp">    -48.09570466 </i>
    <i name="e_0_energy">    -48.09570466 </i>
   </energy>
  </scstep>
  <structure>
   <crystal>
    <varray name="basis" >
     <v>       6.34649449       0.00000004       0.00000000 </v>
     <v>       3.17324683       5.49622520       0.00000000 </v>
     <v>       0.00000000       0.00000000      22.24025435 </v>
    </varray>
    <i name="volume">    775.77927753 </i>
    <varray name="rec_basis" >
     <v>       0.15756730      -0.09097152       0.00000000 </v>
     <v>      -0.00000000       0.18194305      -0.00000000 </v>
     <v>      -0.00000000      -0.00000000       0.04496351 </v>
    </varray>
   </crystal>
   <varray name="positions" >
    <v>       0.33333300       0.33333300       0.49992500 </v>
    <v>       0.66666700       0.66666700       0.50007500 </v>
    <v>       0.00000000      -0.00000000       0.44718546 </v>
    <v>       0.00000000       0.00000000       0.55178400 </v>
    <v>       0.62995652       0.00037372       0.57187965 </v>
    <v>       0.00037372       0.36967076       0.57187965 </v>
    <v>       0.36967076       0.62995652       0.57187965 </v>
    <v>       0.37081453       0.99961933       0.42878796 </v>
    <v>       0.99961933       0.62956514       0.42878796 </v>
    <v>       0.62956514       0.37081453       0.42878796 </v>
   </varray>
  </structure>
  <varray name="forces" >
   <v>       0.00000000      -0.00000000      -0.10910961 </v>
   <v>       0.00000000      -0.00000000      -0.10762946 </v>
   <v>       0.00000000      -0.00000000      -0.56445630 </v>
   <v>       0.00000000      -0.00000000      -0.16962642 </v>
   <v>      -0.24192222      -0.00862499       0.14846619 </v>
   <v>       0.11349164       0.21382328       0.14846619 </v>
   <v>       0.12843058      -0.20519829       0.14846619 </v>
   <v>      -0.11806150       0.00370004       0.16847441 </v>
   <v>       0.06223507       0.10039423       0.16847441 </v>
   <v>       0.05582643      -0.10409427       0.16847441 </v>
  </varray>
  <varray name="stress" >
   <v>       0.04499534      -0.00000058       0.00000000 </v>
   <v>       0.00000057       0.04499534       0.00000000 </v>
   <v>      -0.00000000       0.00000000       1.28017856 </v>
  </varray>
  <energy>
   <i name="e_fr_energy">    -48.09570466 </i>
   <i name="e_wo_entrp">    -48.09570466 </i>
   <i name="e_0_energy">      0.00000000 </i>
  </energy>
  <time name="totalsc">  706.18  709.80</time>
 </calculation>
 <calculation>
  <scstep>
   <time name="dav">   23.32   23.35</time>
   <time name="total">   76.99   77.11</time>
   <energy>
    <i name="alphaZ">     40.70432934 </i>
    <i name="ewald">   7251.46731627 </i>
    <i name="hartreedc">  -9364.65795311 </i>
    <i name="XCdc">    -48.20620560 </i>
    <i name="pawpsdc">   1293.02336896 </i>
    <i name="pawaedc">  -1142.67217535 </i>
    <i name="eentropy">      0.00000000 </i>
    <i name="bandstr">   -466.74477299 </i>
    <i name="atom">   2388.97348331 </i>
    <i name="e_fr_energy">    -48.11260916 </i>
    <i name="e_wo_entrp">    -48.11260916 </i>
    <i name="e_0_energy">    -48.11260916 </i>
   </energy>
  </scstep>
  <scstep>
   <time name="dav">   24.99   25.03</time>
   <time name="total">   78.56   78.70</time>
   <energy>
    <i name="e_fr_energy">    -48.11823392 </i>
    <i name="e_wo_entrp">    -48.11823392 </i>
    <i name="e_0_energy">    -48.11823392 </i>
   </energy>
  </scstep>
  <scstep>
   <time name="dav">   30.48   30.62</time>
   <time name="total">   83.99   84.34</time>
   <energy>
    <i name="e_fr_energy">    -48.11810554 </i>
    <i name="e_wo_entrp">    -48.11810554 </i>
    <i name="e_0_energy">    -48.11810554 </i>
   </energy>
  </scstep>
  <scstep>
   <time name="dav">   29.45   29.60</time>
   <time name="total">   83.04   83.28</time>
   <energy>
    <i name="e_fr_energy">    -48.11758596 </i>
    <i name="e_wo_entrp">    -48.11758596 </i>
    <i name="e_0_energy">    -48.11758596 </i>
   </energy>
  </scstep>
  <scstep>
   <time name="dav">   27.51   27.68</time>
   <time name="total">   81.26   81.53</time>
   <energy>
    <i name="e_fr_energy">    -48.11748508 </i>
    <i name="e_wo_entrp">    -48.11748508 </i>
    <i name="e_0_energy">    -48.11748508 </i>
   </energy>
  </scstep>
  <scstep>
   <time name="dav">   25.29   25.39</time>
   <time name="total">   77.10   77.22</time>
   <energy>
    <i name="alphaZ">     40.70432934 </i>
    <i name="ewald">   7251.46731627 </i>
    <i name="hartreedc">  -9366.40094787 </i>
    <i name="XCdc">    -48.19920963 </i>
    <i name="pawpsdc">   1292.64031091 </i>
    <i name="pawaedc">  -1142.27541174 </i>
    <i name="eentropy">      0.00000000 </i>
    <i name="bandstr">   -465.02726490 </i>
    <i name="atom">   2388.97348331 </i>
    <i name="e_fr_energy">    -48.11739430 </i>
    <i name="e_wo_entrp">    -48.11739430 </i>
    <i name="e_0_energy">    -48.11739430 </i>
   </energy>
  </scstep>
  <structure>
   <crystal>
    <varray name="basis" >
     <v>       6.33992730       0.00000003       0.00000000 </v>
     <v>       3.16996325       5.49053784       0.00000000 </v>
     <v>      -0.00000000       0.00000000      22.28920836 </v>
    </varray>
    <i name="volume">    775.87866470 </i>
    <varray name="rec_basis" >
     <v>       0.15773052      -0.09106575       0.00000000 </v>
     <v>      -0.00000000       0.18213152      -0.00000000 </v>
     <v>      -0.00000000      -0.00000000       0.04486476 </v>
    </varray>
   </crystal>
   <varray name="positions" >
    <v>       0.33333300       0.33333300       0.49992500 </v>
    <v>       0.66666700       0.66666700       0.50007500 </v>
    <v>       0.00000000      -0.00000000       0.44597447 </v>
    <v>       0.00000000       0.00000000       0.55178400 </v>
    <v>       0.62825327       0.00029907       0.57216628 </v>
    <v>       0.00029907       0.37144866       0.57216628 </v>
    <v>       0.37144866       0.62825327       0.57216628 </v>
    <v>       0.36987861       0.99965165       0.42918262 </v>
    <v>       0.99965165       0.63046874       0.42918262 </v>
    <v>       0.63046874       0.36987861       0.42918262 </v>
   </varray>
  </structure>
  <varray name="forces" >
   <v>       0.00000000      -0.00000000      -0.01732293 </v>
   <v>       0.00000000      -0.00000000      -0.01973343 </v>
   <v>       0.00000000       0.00000000      -0.09656213 </v>
   <v>       0.00000000      -0.00000000      -0.40415933 </v>
   <v>      -0.14119689      -0.00520714       0.08434653 </v>
   <v>       0.06608892       0.12488366       0.08434653 </v>
   <v>       0.07510797      -0.11967652       0.08434653 </v>
   <v>      -0.01740065       0.00655764       0.09491274 </v>
   <v>       0.01437941       0.01179058       0.09491274 </v>
   <v>       0.00302124      -0.01834822       0.09491274 </v>
  </varray>
  <varray name="stress" >
   <v>       0.50473368      -0.00000034       0.00000000 </v>
   <v>       0.00000027       0.50473363       0.00000000 </v>
   <v>      -0.00000000       0.00000000      -0.12632864 </v>
  </varray>
  <energy>
   <i name="e_fr_energy">    -48.11739430 </i>
   <i name="e_wo_entrp">    -48.11739430 </i>
   <i name="e_0_energy">      0.00000000 </i>
  </energy>
  <time name="totalsc">  615.91  617.37</time>
 </calculation>
 <calculation>
  <scstep>
   <time name="dav">   23.92   23.94</time>
   <time name="total">   77.60   77.73</time>
   <energy>
    <i name="alphaZ">     40.70052769 </i>
    <i name="ewald">   7280.37699762 </i>
    <i name="hartreedc">  -9393.74058155 </i>
    <i name="XCdc">    -48.20901570 </i>
    <i name="pawpsdc">   1292.56046529 </i>
    <i name="pawaedc">  -1142.19455792 </i>
    <i name="eentropy">      0.00000000 </i>
    <i name="bandstr">   -466.58357353 </i>
    <i name="atom">   2388.97348331 </i>
    <i name="e_fr_energy">    -48.11625479 </i>
    <i name="e_wo_entrp">    -48.11625479 </i>
    <i name="e_0_energy">    -48.11625479 </i>
   </energy>
  </scstep>
  <scstep>
   <time name="dav">   24.83   25.02</time>
   <time name="total">   78.18   78.67</time>
   <energy>
    <i name="e_fr_energy">    -48.11947436 </i>
    <i name="e_wo_entrp">    -48.11947436 </i>
    <i name="e_0_energy">    -48.11947436 </i>
   </energy>
  </scstep>
  <scstep>
   <time name="dav">   30.42   30.86</time>
   <time name="total">   83.69   84.69</time>
   <energy>
    <i name="e_fr_energy">    -48.11939854 </i>
    <i name="e_wo_entrp">    -48.11939854 </i>
    <i name="e_0_energy">    -48.11939854 </i>
   </energy>
  </scstep>
  <scstep>
   <time name="dav">   26.24   26.67</time>
   <time name="total">   79.49   80.41</time>
   <energy>
    <i name="e_fr_energy">    -48.11907674 </i>
    <i name="e_wo_entrp">    -48.11907674 </i>
    <i name="e_0_energy">    -48.11907674 </i>
   </energy>
  </scstep>
  <scstep>
   <time name="dav">   23.98   24.05</time>
   <time name="total">   75.54   75.79</time>
   <energy>
    <i name="alphaZ">     40.70052769 </i>
    <i name="ewald">   7280.37699762 </i>
    <i name="hartreedc">  -9395.21130034 </i>
    <i name="XCdc">    -48.20557938 </i>
    <i name="pawpsdc">   1292.57783428 </i>
    <i name="pawaedc">  -1142.20588206 </i>
    <i name="eentropy">      0.00000000 </i>
    <i name="bandstr">   -465.12509023 </i>
    <i name="atom">   2388.97348331 </i>
    <i name="e_fr_energy">    -48.11900911 </i>
    <i name="e_wo_entrp">    -48.11900911 </i>
    <i name="e_0_energy">    -48.11900911 </i>
   </energy>
  </scstep>
  <structure>
   <crystal>
    <varray name="basis" >
     <v>       6.33489748       0.00000003       0.00000000 </v>
     <v>       3.16744834       5.48618189       0.00000000 </v>
     <v>      -0.00000000       0.00000000      22.32670226 </v>
    </varray>
    <i name="volume">    775.95113600 </i>
    <varray name="rec_basis" >
     <v>       0.15785575      -0.09113805       0.00000000 </v>
     <v>      -0.00000000       0.18227613      -0.00000000 </v>
     <v>      -0.00000000      -0.00000000       0.04478942 </v>
    </varray>
   </crystal>
   <varray name="positions" >
    <v>       0.33333300       0.33333300       0.49992500 </v>
    <v>       0.66666700       0.66666700       0.50007500 </v>
    <v>       0.00000000      -0.00000000       0.44504900 </v>
    <v>       0.00000000       0.00000000       0.55178400 </v>
    <v>       0.62694739       0.00024185       0.57238533 </v>
    <v>       0.00024185       0.37281176       0.57238533 </v>
    <v>       0.37281176       0.62694739       0.57238533 </v>
    <v>       0.36916104       0.99967643       0.42948423 </v>
    <v>       0.99967643       0.63116153       0.42948423 </v>
    <v>       0.63116153       0.36916104       0.42948423 </v>
   </varray>
  </structure>
  <varray name="forces" >
   <v>      -0.00000000      -0.00000000       0.05477411 </v>
   <v>      -0.00000000      -0.00000000       0.04931322 </v>
   <v>      -0.00000000       0.00000000       0.23347158 </v>
   <v>       0.00000000      -0.00000000      -0.55438790 </v>
   <v>      -0.08111233      -0.00247158       0.03940852 </v>
   <v>       0.03841571       0.07148112       0.03940852 </v>
   <v>       0.04269662      -0.06900954       0.03940852 </v>
   <v>       0.06246360       0.00528860       0.03286781 </v>
   <v>      -0.02665173      -0.05673936       0.03286781 </v>
   <v>      -0.03581187       0.05145076       0.03286781 </v>
  </varray>
  <varray name="stress" >
   <v>       0.77601831      -0.00000067       0.00000000 </v>
   <v>       0.00000056       0.77601823      -0.00000000 </v>
   <v>      -0.00000000       0.00000000      -1.38295991 </v>
  </varray>
  <energy>
   <i name="e_fr_energy">    -48.11900911 </i>
   <i name="e_wo_entrp">    -48.11900911 </i>
   <i name="e_0_energy">      0.00000000 </i>
  </energy>
  <time name="totalsc">  528.74  532.59</time>
 </calculation>
 <calculation>
  <scstep>
   <time name="dav">   26.34   26.37</time>
   <time name="total">   79.84   80.07</time>
   <energy>
    <i name="alphaZ">     40.68286504 </i>
    <i name="ewald">   7208.60295701 </i>
    <i name="hartreedc">  -9327.58682636 </i>
    <i name="XCdc">    -48.22404789 </i>
    <i name="pawpsdc">   1292.50379874 </i>
    <i name="pawaedc">  -1142.12977809 </i>
    <i name="eentropy">      0.00000000 </i>
    <i name="bandstr">   -460.94729650 </i>
    <i name="atom">   2388.97348331 </i>
    <i name="e_fr_energy">    -48.12484473 </i>
    <i name="e_wo_entrp">    -48.12484473 </i>
    <i name="e_0_energy">    -48.12484473 </i>
   </energy>
  </scstep>
  <scstep>
   <time name="dav">   25.48   25.66</time>
   <time name="total">   78.95   79.34</time>
   <energy>
    <i name="e_fr_energy">    -48.12479736 </i>
    <i name="e_wo_entrp">    -48.12479736 </i>
    <i name="e_0_energy">    -48.12479736 </i>
   </energy>
  </scstep>
  <scstep>
   <time name="dav">   30.33   30.54</time>
   <time name="total">   83.99   84.29</time>
   <energy>
    <i name="e_fr_energy">    -48.12407266 </i>
    <i name="e_wo_entrp">    -48.12407266 </i>
    <i name="e_0_energy">    -48.12407266 </i>
   </energy>
  </scstep>
  <scstep>
   <time name="dav">   32.25   32.42</time>
   <time name="total">   85.87   86.32</time>
   <energy>
    <i name="e_fr_energy">    -48.12367609 </i>
    <i name="e_wo_entrp">    -48.12367609 </i>
    <i name="e_0_energy">    -48.12367609 </i>
   </energy>
  </scstep>
  <scstep>
   <time name="dav">   23.30   23.44</time>
   <time name="total">   74.73   75.29</time>
   <energy>
    <i name="alphaZ">     40.68286504 </i>
    <i name="ewald">   7208.60295701 </i>
    <i name="hartreedc">  -9326.53150401 </i>
    <i name="XCdc">    -48.23223712 </i>
    <i name="pawpsdc">   1291.57763262 </i>
    <i name="pawaedc">  -1141.17777060 </i>
    <i name="eentropy">      0.00000000 </i>
    <i name="bandstr">   -462.01908273 </i>
    <i name="atom">   2388.97348331 </i>
    <i name="e_fr_energy">    -48.12365648 </i>
    <i name="e_wo_entrp">    -48.12365648 </i>
    <i name="e_0_energy">    -48.12365648 </i>
   </energy>
  </scstep>
  <structure>
   <crystal>
    <varray name="basis" >
     <v>       6.34783203       0.00000002       0.00000000 </v>
     <v>       3.17391562       5.49738353       0.00000000 </v>
     <v>      -0.00000000       0.00000000      22.24546154 </v>
    </varray>
    <i name="volume">    776.28801870 </i>
    <varray name="rec_basis" >
     <v>       0.15753410      -0.09095235       0.00000000 </v>
     <v>      -0.00000000       0.18190472      -0.00000000 </v>
     <v>      -0.00000000      -0.00000000       0.04495299 </v>
    </varray>
   </crystal>
   <varray name="positions" >
    <v>       0.33333300       0.33333300       0.49992500 </v>
    <v>       0.66666700       0.66666700       0.50007500 </v>
    <v>       0.00000000      -0.00000000       0.44561710 </v>
    <v>       0.00000000       0.00000000       0.55178400 </v>
    <v>       0.62626402       0.00021737       0.57248122 </v>
    <v>       0.00021737       0.37351960       0.57248122 </v>
    <v>       0.37351960       0.62626402       0.57248122 </v>
    <v>       0.36967054       0.99972880       0.42956421 </v>
    <v>       0.99972880       0.63059966       0.42956421 </v>
    <v>       0.63059966       0.36967054       0.42956421 </v>
   </varray>
  </structure>
  <varray name="forces" >
   <v>      -0.00000000       0.00000000       0.06234105 </v>
   <v>      -0.00000000       0.00000000       0.05486734 </v>
   <v>      -0.00000000       0.00000000      -0.03101752 </v>
   <v>      -0.00000000       0.00000000      -0.32875840 </v>
   <v>      -0.00964207       0.00018830       0.04555501 </v>
   <v>       0.00498411       0.00825613       0.04555501 </v>
   <v>       0.00465797      -0.00844443       0.04555501 </v>
   <v>       0.00564116       0.00604132       0.03530083 </v>
   <v>       0.00241136      -0.00790605       0.03530083 </v>
   <v>      -0.00805252       0.00186473       0.03530083 </v>
  </varray>
  <varray name="stress" >
   <v>      -0.00700083      -0.00000094      -0.00000000 </v>
   <v>       0.00000094      -0.00700083       0.00000000 </v>
   <v>      -0.00000000       0.00000000      -0.53242344 </v>
  </varray>
  <energy>
   <i name="e_fr_energy">    -48.12365648 </i>
   <i name="e_wo_entrp">    -48.12365648 </i>
   <i name="e_0_energy">      0.00000000 </i>
  </energy>
  <time name="totalsc">  537.89  540.65</time>
 </calculation>
 <calculation>
  <scstep>
   <time name="dav">   25.58   25.76</time>
   <time name="total">   79.31   79.60</time>
   <energy>
    <i name="alphaZ">     40.67777618 </i>
    <i name="ewald">   7187.32490843 </i>
    <i name="hartreedc">  -9306.42829159 </i>
    <i name="XCdc">    -48.23809923 </i>
    <i name="pawpsdc">   1291.65055883 </i>
    <i name="pawaedc">  -1141.25843453 </i>
    <i name="eentropy">      0.00000000 </i>
    <i name="bandstr">   -460.82535407 </i>
    <i name="atom">   2388.97348331 </i>
    <i name="e_fr_energy">    -48.12345267 </i>
    <i name="e_wo_entrp">    -48.12345267 </i>
    <i name="e_0_energy">    -48.12345267 </i>
   </energy>
  </scstep>
  <scstep>
   <time name="dav">   25.92   25.98</time>
   <time name="total">   79.14   79.67</time>
   <energy>
    <i name="e_fr_energy">    -48.12309352 </i>
    <i name="e_wo_entrp">    -48.12309352 </i>
    <i name="e_0_energy">    -48.12309352 </i>
   </energy>
  </scstep>
  <scstep>
   <time name="dav">   26.22   26.26</time>
   <time name="total">   80.89   80.96</time>
   <energy>
    <i name="e_fr_energy">    -48.12290552 </i>
    <i name="e_wo_entrp">    -48.12290552 </i>
    <i name="e_0_energy">    -48.12290552 </i>
   </energy>
  </scstep>
  <scstep>
   <time name="dav">   22.42   22.58</time>
   <time name="total">   75.83   76.17</time>
   <energy>
    <i name="e_fr_energy">    -48.12279433 </i>
    <i name="e_wo_entrp">    -48.12279433 </i>
    <i name="e_0_energy">    -48.12279433 </i>
   </energy>
  </scstep>
  <scstep>
   <time name="dav">   19.56   19.69</time>
   <time name="total">   71.78   72.18</time>
   <energy>
    <i name="alphaZ">     40.67777618 </i>
    <i name="ewald">   7187.32490843 </i>
    <i name="hartreedc">  -9305.84995217 </i>
    <i name="XCdc">    -48.24671554 </i>
    <i name="pawpsdc">   1291.51512983 </i>
    <i name="pawaedc">  -1141.11629977 </i>
    <i name="eentropy">      0.00000000 </i>
    <i name="bandstr">   -461.40109508 </i>
    <i name="atom">   2388.97348331 </i>
    <i name="e_fr_energy">    -48.12276482 </i>
    <i name="e_wo_entrp">    -48.12276482 </i>
    <i name="e_0_energy">    -48.12276482 </i>
   </energy>
  </scstep>
  <structure>
   <crystal>
    <varray name="basis" >
     <v>       6.35168425       0.00000001       0.00000000 </v>
     <v>       3.17584173       5.50071964       0.00000000 </v>
     <v>      -0.00000000       0.00000000      22.22126611 </v>
    </varray>
    <i name="volume">    776.38513375 </i>
    <varray name="rec_basis" >
     <v>       0.15743856      -0.09089719       0.00000000 </v>
     <v>      -0.00000000       0.18179440      -0.00000000 </v>
     <v>      -0.00000000      -0.00000000       0.04500194 </v>
    </varray>
   </crystal>
   <varray name="positions" >
    <v>       0.33333300       0.33333300       0.49992500 </v>
    <v>       0.66666700       0.66666700       0.50007500 </v>
    <v>       0.00000000      -0.00000000       0.44578691 </v>
    <v>       0.00000000       0.00000000       0.55178400 </v>
    <v>       0.62606092       0.00021010       0.57250988 </v>
    <v>       0.00021010       0.37372999       0.57250988 </v>
    <v>       0.37372999       0.62606092       0.57250988 </v>
    <v>       0.36982197       0.99974437       0.42958811 </v>
    <v>       0.99974437       0.63043267       0.42958811 </v>
    <v>       0.63043267       0.36982197       0.42958811 </v>
   </varray>
  </structure>
  <varray name="forces" >
   <v>      -0.00000000      -0.00000000       0.06354521 </v>
   <v>      -0.00000000      -0.00000000       0.05425014 </v>
   <v>      -0.00000000      -0.00000000      -0.10733340 </v>
   <v>      -0.00000000      -0.00000000      -0.26121567 </v>
   <v>       0.01259298      -0.00235299       0.04771010 </v>
   <v>      -0.00833424      -0.00972935       0.04771010 </v>
   <v>      -0.00425874       0.01208234       0.04771010 </v>
   <v>      -0.01154816       0.00314541       0.03587448 </v>
   <v>       0.00849808       0.00842829       0.03587448 </v>
   <v>       0.00305007      -0.01157370       0.03587448 </v>
  </varray>
  <varray name="stress" >
   <v>      -0.55321093      -0.00000057       0.00000000 </v>
   <v>       0.00000065      -0.55321088       0.00000000 </v>
   <v>       0.00000000       0.00000000      -0.35721422 </v>
  </varray>
  <energy>
   <i name="e_fr_energy">    -48.12276482 </i>
   <i name="e_wo_entrp">    -48.12276482 </i>
   <i name="e_0_energy">      0.00000000 </i>
  </energy>
  <time name="totalsc">  518.96  521.33</time>
  <eigenvalues>
   <array>
    <dimension dim="1">band</dimension>
    <dimension dim="2">kpoint</dimension>
    <dimension dim="3">spin</dimension>
    <field>eigene</field>
    <field>occ</field>
    <set>
     <set comment="spin 1">
      <set comment="kpoint 1">
       <r>  -17.3888    1.0000 </r>
       <r>  -16.3475    1.0000 </r>
       <r>  -15.4572    1.0000 </r>
       <r>  -15.4572    1.0000 </r>
       <r>  -15.2231    1.0000 </r>
       <r>  -15.2231    1.0000 </r>
       <r>  -13.0691    1.0000 </r>
       <r>  -10.4291    1.0000 </r>
       <r>   -8.2283    1.0000 </r>
       <r>   -8.2283    1.0000 </r>
       <r>   -7.8143    1.0000 </r>
       <r>   -7.5687    1.0000 </r>
       <r>   -7.4745    1.0000 </r>
       <r>   -7.4745    1.0000 </r>
       <r>   -6.2960    1.0000 </r>
       <r>   -5.5827    1.0000 </r>
       <r>   -5.5826    1.0000 </r>
       <r>   -5.2643    1.0000 </r>
       <r>   -5.2643    1.0000 </r>
       <r>   -5.2080    1.0000 </r>
       <r>   -4.6331    1.0000 </r>
       <r>   -4.6330    1.0000 </r>
       <r>   -4.5864    1.0000 </r>
       <r>   -3.8072    1.0000 </r>
       <r>   -3.8072    1.0000 </r>
       <r>   -3.6672    1.0000 </r>
       <r>   -3.6672    1.0000 </r>
       <r>   -3.6416    1.0000 </r>
       <r>   -3.4781    1.0000 </r>
       <r>   -3.3348    1.0000 </r>
       <r>   -3.3348    1.0000 </r>
       <r>   -1.8368    0.0000 </r>
       <r>   -1.5256    0.0000 </r>
       <r>   -1.5256    0.0000 </r>
       <r>   -1.1837    0.0000 </r>
       <r>   -1.0202    0.0000 </r>
       <r>   -1.0202    0.0000 </r>
       <r>    0.1363    0.0000 </r>
       <r>    0.1363    0.0000 </r>
       <r>    1.3632    0.0000 </r>
       <r>    1.5097    0.0000 </r>
       <r>    1.9221    0.0000 </r>
       <r>    2.0958    0.0000 </r>
       <r>    2.0958    0.0000 </r>
       <r>    2.1452    0.0000 </r>
       <r>    2.4727    0.0000 </r>
       <r>    3.0969    0.0000 </r>
       <r>    3.3594    0.0000 </r>
      </set>
      <set comment="kpoint 2">
       <r>  -17.2677    1.0000 </r>
       <r>  -16.2571    1.0000 </r>
       <r>  -15.6484    1.0000 </r>
       <r>  -15.5324    1.0000 </r>
       <r>  -15.3255    1.0000 </r>
       <r>  -15.2903    1.0000 </r>
       <r>  -12.9240    1.0000 </r>
       <r>  -10.4921    1.0000 </r>
       <r>   -8.2521    1.0000 </r>
       <r>   -7.9882    1.0000 </r>
       <r>   -7.7208    1.0000 </r>
       <r>   -7.6680    1.0000 </r>
       <r>   -7.0195    1.0000 </r>
       <r>   -6.7786    1.0000 </r>
       <r>   -6.1536    1.0000 </r>
       <r>   -5.8247    1.0000 </r>
       <r>   -5.7808    1.0000 </r>
       <r>   -5.5797    1.0000 </r>
       <r>   -5.1405    1.0000 </r>
       <r>   -5.0356    1.0000 </r>
       <r>   -4.9419    1.0000 </r>
       <r>   -4.8699    1.0000 </r>
       <r>   -4.4613    1.0000 </r>
       <r>   -4.3433    1.0000 </r>
       <r>   -4.1326    1.0000 </r>
       <r>   -3.7626    1.0000 </r>
       <r>   -3.7426    1.0000 </r>
       <r>   -3.6002    1.0000 </r>
       <r>   -3.5404    1.0000 </r>
       <r>   -3.3450    1.0000 </r>
       <r>   -3.2395    1.0000 </r>
       <r>   -2.1431   -0.0227 </r>
       <r>   -1.4789    0.0000 </r>
       <r>   -1.4496    0.0000 </r>
       <r>   -1.2585    0.0000 </r>
       <r>   -1.0161    0.0000 </r>
       <r>   -0.5487    0.0000 </r>
       <r>    0.1267    0.0000 </r>
       <r>    0.2925    0.0000 </r>
       <r>    1.1887    0.0000 </r>
       <r>    1.6099    0.0000 </r>
       <r>    1.8987    0.0000 </r>
       <r>    1.9951    0.0000 </r>
       <r>    2.0946    0.0000 </r>
       <r>    2.3493    0.0000 </r>
       <r>    2.5445    0.0000 </r>
       <r>    3.2448    0.0000 </r>
       <r>    3.3301    0.0000 </r>
      </set>
      <set comment="kpoint 3">
       <r>  -16.9726    1.0000 </r>
       <r>  -16.1311    1.0000 </r>
       <r>  -15.9872    1.0000 </r>
       <r>  -15.6290    1.0000 </r>
       <r>  -15.5501    1.0000 </r>
       <r>  -15.3909    1.0000 </r>
       <r>  -12.7066    1.0000 </r>
       <r>  -10.5480    1.0000 </r>
       <r>   -8.1265    1.0000 </r>
       <r>   -7.7550    1.0000 </r>
       <r>   -7.3288    1.0000 </r>
       <r>   -7.1283    1.0000 </r>
       <r>   -6.4011    1.0000 </r>
       <r>   -6.3074    1.0000 </r>
       <r>   -6.2568    1.0000 </r>
       <r>   -6.1181    1.0000 </r>
       <r>   -5.9611    1.0000 </r>
       <r>   -5.8672    1.0000 </r>
       <r>   -5.4527    1.0000 </r>
       <r>   -5.3607    1.0000 </r>
       <r>   -5.2351    1.0000 </r>
       <r>   -4.7206    1.0000 </r>
       <r>   -4.6614    1.0000 </r>
       <r>   -4.4561    1.0000 </r>
       <r>   -4.2047    1.0000 </r>
       <r>   -4.0671    1.0000 </r>
       <r>   -3.7959    1.0000 </r>
       <r>   -3.5494    1.0000 </r>
       <r>   -3.4894    1.0000 </r>
       <r>   -3.4315    1.0000 </r>
       <r>   -3.3060    1.0000 </r>
       <r>   -2.1687    0.0095 </r>
       <r>   -1.8036    0.0000 </r>
       <r>   -1.4599    0.0000 </r>
       <r>   -1.3674    0.0000 </r>
       <r>   -1.0680    0.0000 </r>
       <r>   -0.6243    0.0000 </r>
       <r>   -0.0447    0.0000 </r>
       <r>    0.6442    0.0000 </r>
       <r>    1.0108    0.0000 </r>
       <r>    1.4389    0.0000 </r>
       <r>    1.6609    0.0000 </r>
       <r>    2.2939    0.0000 </r>
       <r>    2.4851    0.0000 </r>
       <r>    2.5677    0.0000 </r>
       <r>    2.9165    0.0000 </r>
       <r>    3.0795    0.0000 </r>
       <r>    3.1571    0.0000 </r>
      </set>
      <set comment="kpoint 4">
       <r>  -17.0529    1.0000 </r>
       <r>  -16.1088    1.0000 </r>
       <r>  -15.8724    1.0000 </r>
       <r>  -15.7297    1.0000 </r>
       <r>  -15.4580    1.0000 </r>
       <r>  -15.3854    1.0000 </r>
       <r>  -12.7307    1.0000 </r>
       <r>  -10.5284    1.0000 </r>
       <r>   -8.2459    1.0000 </r>
       <r>   -7.6006    1.0000 </r>
       <r>   -7.5524    1.0000 </r>
       <r>   -7.4009    1.0000 </r>
       <r>   -6.4133    1.0000 </r>
       <r>   -6.2535    1.0000 </r>
       <r>   -6.1673    1.0000 </r>
       <r>   -6.1027    1.0000 </r>
       <r>   -5.9285    1.0000 </r>
       <r>   -5.7114    1.0000 </r>
       <r>   -5.6763    1.0000 </r>
       <r>   -5.3212    1.0000 </r>
       <r>   -5.2903    1.0000 </r>
       <r>   -4.6909    1.0000 </r>
       <r>   -4.4219    1.0000 </r>
       <r>   -4.2650    1.0000 </r>
       <r>   -4.2472    1.0000 </r>
       <r>   -4.0186    1.0000 </r>
       <r>   -3.8227    1.0000 </r>
       <r>   -3.5813    1.0000 </r>
       <r>   -3.5084    1.0000 </r>
       <r>   -3.4035    1.0000 </r>
       <r>   -3.2956    1.0000 </r>
       <r>   -2.3365    0.7799 </r>
       <r>   -1.5866    0.0000 </r>
       <r>   -1.3822    0.0000 </r>
       <r>   -1.2361    0.0000 </r>
       <r>   -1.1936    0.0000 </r>
       <r>   -0.6245    0.0000 </r>
       <r>    0.1743    0.0000 </r>
       <r>    0.2004    0.0000 </r>
       <r>    1.0629    0.0000 </r>
       <r>    1.3819    0.0000 </r>
       <r>    1.5533    0.0000 </r>
       <r>    2.1279    0.0000 </r>
       <r>    2.4304    0.0000 </r>
       <r>    2.7361    0.0000 </r>
       <r>    2.7560    0.0000 </r>
       <r>    3.3090    0.0000 </r>
       <r>    3.3803    0.0000 </r>
      </set>
      <set comment="kpoint 5">
       <r>  -16.8387    1.0000 </r>
       <r>  -16.1520    1.0000 </r>
       <r>  -15.9136    1.0000 </r>
       <r>  -15.8224    1.0000 </r>
       <r>  -15.5992    1.0000 </r>
       <r>  -15.4567    1.0000 </r>
       <r>  -12.6039    1.0000 </r>
       <r>  -10.5266    1.0000 </r>
       <r>   -8.0520    1.0000 </r>
       <r>   -7.5726    1.0000 </r>
       <r>   -7.4329    1.0000 </r>
       <r>   -6.8621    1.0000 </r>
       <r>   -6.8546    1.0000 </r>
       <r>   -6.3729    1.0000 </r>
       <r>   -6.1449    1.0000 </r>
       <r>   -6.0292    1.0000 </r>
       <r>   -5.9210    1.0000 </r>
       <r>   -5.6349    1.0000 </r>
       <r>   -5.6238    1.0000 </r>
       <r>   -5.4661    1.0000 </r>
       <r>   -5.2427    1.0000 </r>
       <r>   -4.7129    1.0000 </r>
       <r>   -4.4067    1.0000 </r>
       <r>   -4.4002    1.0000 </r>
       <r>   -4.2315    1.0000 </r>
       <r>   -4.0036    1.0000 </r>
       <r>   -3.8117    1.0000 </r>
       <r>   -3.6611    1.0000 </r>
       <r>   -3.4850    1.0000 </r>
       <r>   -3.4365    1.0000 </r>
       <r>   -3.3961    1.0000 </r>
       <r>   -2.1733    0.0136 </r>
       <r>   -1.7248    0.0000 </r>
       <r>   -1.7082    0.0000 </r>
       <r>   -1.3535    0.0000 </r>
       <r>   -1.1205    0.0000 </r>
       <r>   -0.6560    0.0000 </r>
       <r>   -0.2115    0.0000 </r>
       <r>    0.2044    0.0000 </r>
       <r>    1.0270    0.0000 </r>
       <r>    1.1463    0.0000 </r>
       <r>    1.2174    0.0000 </r>
       <r>    2.6911    0.0000 </r>
       <r>    2.8348    0.0000 </r>
       <r>    2.8367    0.0000 </r>
       <r>    2.9434    0.0000 </r>
       <r>    3.1271    0.0000 </r>
       <r>    3.5069    0.0000 </r>
      </set>
     </set>
     <set comment="spin 2">
      <set comment="kpoint 1">
       <r>  -17.4322    1.0000 </r>
       <r>  -16.4050    1.0000 </r>
       <r>  -15.5568    1.0000 </r>
       <r>  -15.5568    1.0000 </r>
       <r>  -15.2793    1.0000 </r>
       <r>  -15.2793    1.0000 </r>
       <r>  -13.0805    1.0000 </r>
       <r>  -10.4406    1.0000 </r>
       <r>   -8.1791    1.0000 </r>
       <r>   -8.1791    1.0000 </r>
       <r>   -7.6934    1.0000 </r>
       <r>   -7.3743    1.0000 </r>
       <r>   -7.3743    1.0000 </r>
       <r>   -7.2982    1.0000 </r>
       <r>   -6.2584    1.0000 </r>
       <r>   -5.0750    1.0000 </r>
       <r>   -5.0750    1.0000 </r>
       <r>   -4.9240    1.0000 </r>
       <r>   -4.8420    1.0000 </r>
       <r>   -4.8420    1.0000 </r>
       <r>   -4.5727    1.0000 </r>
       <r>   -4.4695    1.0000 </r>
       <r>   -4.4695    1.0000 </r>
       <r>   -3.4089    1.0000 </r>
       <r>   -3.4089    1.0000 </r>
       <r>   -2.1037    0.0000 </r>
       <r>   -1.4493    0.0000 </r>
       <r>   -1.4493    0.0000 </r>
       <r>   -1.3827    0.0000 </r>
       <r>   -1.0997    0.0000 </r>
       <r>   -1.0997    0.0000 </r>
       <r>   -0.8527    0.0000 </r>
       <r>   -0.8440    0.0000 </r>
       <r>   -0.3048    0.0000 </r>
       <r>   -0.3048    0.0000 </r>
       <r>    0.0825    0.0000 </r>
       <r>    0.0826    0.0000 </r>
       <r>    0.3108    0.0000 </r>
       <r>    0.3108    0.0000 </r>
       <r>    1.3384    0.0000 </r>
       <r>    1.6342    0.0000 </r>
       <r>    1.9607    0.0000 </r>
       <r>    2.1676    0.0000 </r>
       <r>    2.2023    0.0000 </r>
       <r>    2.2023    0.0000 </r>
       <r>    3.0244    0.0000 </r>
       <r>    3.1481    0.0000 </r>
       <r>    3.9019    0.0000 </r>
      </set>
      <set comment="kpoint 2">
       <r>  -17.3142    1.0000 </r>
       <r>  -16.3136    1.0000 </r>
       <r>  -15.7361    1.0000 </r>
       <r>  -15.6292    1.0000 </r>
       <r>  -15.3838    1.0000 </r>
       <r>  -15.3448    1.0000 </r>
       <r>  -12.9451    1.0000 </r>
       <r>  -10.4990    1.0000 </r>
       <r>   -8.1958    1.0000 </r>
       <r>   -7.9070    1.0000 </r>
       <r>   -7.5946    1.0000 </r>
       <r>   -7.5621    1.0000 </r>
       <r>   -6.9035    1.0000 </r>
       <r>   -6.5845    1.0000 </r>
       <r>   -5.9918    1.0000 </r>
       <r>   -5.5443    1.0000 </r>
       <r>   -5.3544    1.0000 </r>
       <r>   -5.1279    1.0000 </r>
       <r>   -5.0148    1.0000 </r>
       <r>   -4.7104    1.0000 </r>
       <r>   -4.6733    1.0000 </r>
       <r>   -4.5506    1.0000 </r>
       <r>   -4.3876    1.0000 </r>
       <r>   -4.1634    1.0000 </r>
       <r>   -3.7316    1.0000 </r>
       <r>   -2.1080    0.3171 </r>
       <r>   -1.5344    0.0000 </r>
       <r>   -1.3869    0.0000 </r>
       <r>   -1.2554    0.0000 </r>
       <r>   -1.1307    0.0000 </r>
       <r>   -1.0232    0.0000 </r>
       <r>   -0.8643    0.0000 </r>
       <r>   -0.5103    0.0000 </r>
       <r>   -0.3381    0.0000 </r>
       <r>   -0.1782    0.0000 </r>
       <r>   -0.1496    0.0000 </r>
       <r>   -0.0851    0.0000 </r>
       <r>    0.3550    0.0000 </r>
       <r>    0.5416    0.0000 </r>
       <r>    1.2636    0.0000 </r>
       <r>    1.7433    0.0000 </r>
       <r>    2.0237    0.0000 </r>
       <r>    2.1103    0.0000 </r>
       <r>    2.1552    0.0000 </r>
       <r>    2.3748    0.0000 </r>
       <r>    3.0108    0.0000 </r>
       <r>    3.3222    0.0000 </r>
       <r>    3.5601    0.0000 </r>
      </set>
      <set comment="kpoint 3">
       <r>  -17.0292    1.0000 </r>
       <r>  -16.1877    1.0000 </r>
       <r>  -16.0472    1.0000 </r>
       <r>  -15.7215    1.0000 </r>
       <r>  -15.6183    1.0000 </r>
       <r>  -15.4416    1.0000 </r>
       <r>  -12.7398    1.0000 </r>
       <r>  -10.5484    1.0000 </r>
       <r>   -8.0626    1.0000 </r>
       <r>   -7.6415    1.0000 </r>
       <r>   -7.2790    1.0000 </r>
       <r>   -7.0299    1.0000 </r>
       <r>   -6.2713    1.0000 </r>
       <r>   -6.1381    1.0000 </r>
       <r>   -6.0773    1.0000 </r>
       <r>   -5.8372    1.0000 </r>
       <r>   -5.6375    1.0000 </r>
       <r>   -5.4608    1.0000 </r>
       <r>   -5.2631    1.0000 </r>
       <r>   -5.0941    1.0000 </r>
       <r>   -4.8490    1.0000 </r>
       <r>   -4.5826    1.0000 </r>
       <r>   -4.3731    1.0000 </r>
       <r>   -4.1898    1.0000 </r>
       <r>   -4.0845    1.0000 </r>
       <r>   -2.7363    1.0218 </r>
       <r>   -1.7241    0.0000 </r>
       <r>   -1.4011    0.0000 </r>
       <r>   -1.2824    0.0000 </r>
       <r>   -1.1438    0.0000 </r>
       <r>   -0.9728    0.0000 </r>
       <r>   -0.8912    0.0000 </r>
       <r>   -0.6951    0.0000 </r>
       <r>   -0.4313    0.0000 </r>
       <r>   -0.1910    0.0000 </r>
       <r>   -0.0695    0.0000 </r>
       <r>    0.0676    0.0000 </r>
       <r>    0.2535    0.0000 </r>
       <r>    0.9037    0.0000 </r>
       <r>    1.1730    0.0000 </r>
       <r>    1.6481    0.0000 </r>
       <r>    1.8131    0.0000 </r>
       <r>    2.3985    0.0000 </r>
       <r>    2.6313    0.0000 </r>
       <r>    2.8417    0.0000 </r>
       <r>    2.9402    0.0000 </r>
       <r>    3.2040    0.0000 </r>
       <r>    3.2571    0.0000 </r>
      </set>
      <set comment="kpoint 4">
       <r>  -17.1061    1.0000 </r>
       <r>  -16.1628    1.0000 </r>
       <r>  -15.9485    1.0000 </r>
       <r>  -15.8116    1.0000 </r>
       <r>  -15.5187    1.0000 </r>
       <r>  -15.4459    1.0000 </r>
       <r>  -12.7637    1.0000 </r>
       <r>  -10.5297    1.0000 </r>
       <r>   -8.1666    1.0000 </r>
       <r>   -7.4930    1.0000 </r>
       <r>   -7.4745    1.0000 </r>
       <r>   -7.3408    1.0000 </r>
       <r>   -6.2719    1.0000 </r>
       <r>   -6.0096    1.0000 </r>
       <r>   -5.9726    1.0000 </r>
       <r>   -5.8165    1.0000 </r>
       <r>   -5.6487    1.0000 </r>
       <r>   -5.4981    1.0000 </r>
       <r>   -5.4215    1.0000 </r>
       <r>   -5.0212    1.0000 </r>
       <r>   -4.8343    1.0000 </r>
       <r>   -4.4736    1.0000 </r>
       <r>   -4.3044    1.0000 </r>
       <r>   -4.0666    1.0000 </r>
       <r>   -3.9873    1.0000 </r>
       <r>   -2.6544    1.0475 </r>
       <r>   -1.7008    0.0000 </r>
       <r>   -1.5547    0.0000 </r>
       <r>   -1.4101    0.0000 </r>
       <r>   -1.0029    0.0000 </r>
       <r>   -0.8657    0.0000 </r>
       <r>   -0.8600    0.0000 </r>
       <r>   -0.6244    0.0000 </r>
       <r>   -0.3558    0.0000 </r>
       <r>   -0.3394    0.0000 </r>
       <r>   -0.0457    0.0000 </r>
       <r>    0.0914    0.0000 </r>
       <r>    0.3976    0.0000 </r>
       <r>    0.4805    0.0000 </r>
[...]
        <r>  0.0020  0.0044  0.0051  0.0039  0.0013  0.0000  0.0019  0.0003  0.0021 </r>
        <r>  0.0000  0.0006  0.0000  0.0019  0.0012  0.0000  0.0000  0.0000  0.0037 </r>
        <r>  0.0020  0.0071  0.0049  0.0011  0.0018  0.0003  0.0019  0.0000  0.0017 </r>
       </set>
       <set comment="band 30">
        <r>  0.0001  0.0005  0.0001  0.0000  0.1308  0.0282  0.0184  0.0133  0.2392 </r>
        <r>  0.0001  0.0002  0.0001  0.0003  0.1862  0.0124  0.0187  0.0281  0.1869 </r>
        <r>  0.0000  0.0007  0.0000  0.0023  0.0000  0.0000  0.0000  0.0000  0.0000 </r>
        <r>  0.0000  0.0001  0.0000  0.0003  0.0000  0.0000  0.0000  0.0000  0.0001 </r>
        <r>  0.0004  0.0047  0.0012  0.0001  0.0003  0.0001  0.0001  0.0000  0.0001 </r>
        <r>  0.0000  0.0005  0.0000  0.0016  0.0003  0.0002  0.0000  0.0006  0.0009 </r>
        <r>  0.0004  0.0007  0.0012  0.0040  0.0002  0.0001  0.0001  0.0001  0.0003 </r>
        <r>  0.0000  0.0018  0.0006  0.0010  0.0010  0.0003  0.0002  0.0000  0.0002 </r>
        <r>  0.0000  0.0009  0.0000  0.0027  0.0003  0.0001  0.0000  0.0002  0.0008 </r>
        <r>  0.0000  0.0018  0.0006  0.0010  0.0002  0.0001  0.0002  0.0002  0.0010 </r>
       </set>
       <set comment="band 31">
        <r>  0.0012  0.0003  0.0001  0.0004  0.0695  0.0031  0.2123  0.0022  0.0916 </r>
        <r>  0.0013  0.0001  0.0001  0.0006  0.0370  0.0039  0.2179  0.0019  0.1191 </r>
        <r>  0.0018  0.0101  0.0068  0.0037  0.0000  0.0000  0.0000  0.0000  0.0000 </r>
        <r>  0.0070  0.0039  0.0036  0.0014  0.0002  0.0002  0.0005  0.0001  0.0001 </r>
        <r>  0.0004  0.0020  0.0007  0.0046  0.0001  0.0003  0.0001  0.0007  0.0000 </r>
        <r>  0.0010  0.0010  0.0049  0.0004  0.0003  0.0000  0.0014  0.0000  0.0001 </r>
        <r>  0.0004  0.0015  0.0006  0.0052  0.0000  0.0005  0.0001  0.0006  0.0002 </r>
        <r>  0.0001  0.0007  0.0004  0.0002  0.0004  0.0009  0.0000  0.0005  0.0001 </r>
        <r>  0.0024  0.0046  0.0027  0.0015  0.0007  0.0000  0.0015  0.0000  0.0002 </r>
        <r>  0.0001  0.0005  0.0004  0.0006  0.0002  0.0000  0.0000  0.0013  0.0002 </r>
       </set>
       <set comment="band 32">
        <r>  0.0025  0.0003  0.0005  0.0005  0.1796  0.0068  0.1632  0.0080  0.0304 </r>
        <r>  0.0025  0.0002  0.0005  0.0007  0.0778  0.0114  0.1577  0.0036  0.1356 </r>
        <r>  0.0000  0.0058  0.0000  0.0164  0.0000  0.0000  0.0000  0.0000  0.0000 </r>
        <r>  0.0000  0.0040  0.0000  0.0117  0.0001  0.0001  0.0000  0.0002  0.0003 </r>
        <r>  0.0014  0.0026  0.0030  0.0010  0.0004  0.0006  0.0009  0.0000  0.0001 </r>
        <r>  0.0000  0.0007  0.0000  0.0022  0.0002  0.0002  0.0000  0.0005  0.0005 </r>
        <r>  0.0014  0.0008  0.0031  0.0029  0.0000  0.0002  0.0009  0.0004  0.0006 </r>
        <r>  0.0025  0.0014  0.0006  0.0045  0.0001  0.0005  0.0007  0.0000  0.0002 </r>
        <r>  0.0000  0.0005  0.0000  0.0017  0.0002  0.0006  0.0000  0.0017  0.0006 </r>
        <r>  0.0025  0.0021  0.0007  0.0038  0.0001  0.0001  0.0007  0.0005  0.0002 </r>
       </set>
       <set comment="band 33">
        <r>  0.0011  0.0001  0.0003  0.0001  0.0837  0.0416  0.0388  0.0386  0.0802 </r>
        <r>  0.0011  0.0001  0.0003  0.0000  0.1262  0.0174  0.0394  0.0642  0.0350 </r>
        <r>  0.0034  0.0032  0.0231  0.0011  0.0000  0.0000  0.0000  0.0000  0.0000 </r>
        <r>  0.0140  0.0021  0.0280  0.0007  0.0000  0.0000  0.0030  0.0000  0.0000 </r>
        <r>  0.0022  0.0006  0.0049  0.0059  0.0000  0.0002  0.0002  0.0025  0.0005 </r>
        <r>  0.0054  0.0055  0.0005  0.0018  0.0003  0.0017  0.0001  0.0006  0.0001 </r>
        <r>  0.0021  0.0029  0.0048  0.0036  0.0004  0.0018  0.0002  0.0009  0.0001 </r>
        <r>  0.0018  0.0014  0.0036  0.0005  0.0001  0.0001  0.0005  0.0016  0.0010 </r>
        <r>  0.0059  0.0038  0.0027  0.0013  0.0001  0.0008  0.0000  0.0003  0.0000 </r>
        <r>  0.0018  0.0008  0.0036  0.0010  0.0009  0.0011  0.0005  0.0005  0.0002 </r>
       </set>
       <set comment="band 34">
        <r>  0.0003  0.0002  0.0014  0.0001  0.0018  0.1282  0.0978  0.0496  0.0150 </r>
        <r>  0.0003  0.0001  0.0014  0.0003  0.0135  0.1256  0.0952  0.0527  0.0035 </r>
        <r>  0.0000  0.0048  0.0000  0.0146  0.0000  0.0000  0.0000  0.0000  0.0000 </r>
        <r>  0.0000  0.0026  0.0000  0.0078  0.0010  0.0002  0.0000  0.0008  0.0029 </r>
        <r>  0.0027  0.0030  0.0055  0.0103  0.0017  0.0005  0.0001  0.0003  0.0004 </r>
        <r>  0.0000  0.0007  0.0000  0.0022  0.0005  0.0001  0.0000  0.0003  0.0016 </r>
        <r>  0.0027  0.0047  0.0056  0.0087  0.0002  0.0001  0.0001  0.0007  0.0019 </r>
        <r>  0.0050  0.0004  0.0083  0.0172  0.0017  0.0004  0.0001  0.0003  0.0002 </r>
        <r>  0.0000  0.0007  0.0000  0.0020  0.0007  0.0002  0.0000  0.0007  0.0021 </r>
        <r>  0.0050  0.0111  0.0083  0.0064  0.0002  0.0000  0.0001  0.0006  0.0018 </r>
       </set>
       <set comment="band 35">
        <r>  0.0010  0.0000  0.0009  0.0000  0.0420  0.0760  0.0243  0.1347  0.0034 </r>
        <r>  0.0010  0.0001  0.0010  0.0000  0.0231  0.0906  0.0240  0.1310  0.0225 </r>
        <r>  0.0012  0.0172  0.0019  0.0057  0.0000  0.0000  0.0000  0.0000  0.0000 </r>
        <r>  0.0038  0.0044  0.0009  0.0013  0.0015  0.0014  0.0002  0.0005  0.0005 </r>
        <r>  0.0016  0.0065  0.0050  0.0018  0.0008  0.0011  0.0000  0.0002  0.0000 </r>
        <r>  0.0038  0.0255  0.0111  0.0080  0.0002  0.0008  0.0001  0.0002  0.0000 </r>
        <r>  0.0016  0.0054  0.0049  0.0037  0.0002  0.0008  0.0000  0.0005  0.0007 </r>
        <r>  0.0008  0.0023  0.0025  0.0027  0.0021  0.0012  0.0000  0.0002  0.0000 </r>
        <r>  0.0027  0.0418  0.0087  0.0147  0.0007  0.0006  0.0001  0.0002  0.0002 </r>
        <r>  0.0006  0.0049  0.0023  0.0002  0.0007  0.0009  0.0000  0.0005  0.0013 </r>
       </set>
       <set comment="band 36">
        <r>  0.0036  0.0006  0.0022  0.0011  0.0460  0.0242  0.0168  0.0157  0.0140 </r>
        <r>  0.0037  0.0005  0.0022  0.0012  0.0205  0.0224  0.0177  0.0159  0.0367 </r>
        <r>  0.0005  0.0610  0.0025  0.0200  0.0000  0.0000  0.0000  0.0000  0.0000 </r>
        <r>  0.0018  0.0158  0.0003  0.0050  0.0014  0.0040  0.0002  0.0013  0.0004 </r>
        <r>  0.0015  0.0025  0.0028  0.0004  0.0011  0.0013  0.0000  0.0002  0.0007 </r>
        <r>  0.0064  0.0158  0.0032  0.0056  0.0008  0.0013  0.0004  0.0004  0.0003 </r>
        <r>  0.0019  0.0001  0.0032  0.0025  0.0009  0.0000  0.0000  0.0014  0.0009 </r>
        <r>  0.0032  0.0134  0.0034  0.0186  0.0029  0.0008  0.0001  0.0005  0.0014 </r>
        <r>  0.0186  0.0369  0.0131  0.0134  0.0016  0.0015  0.0004  0.0006  0.0006 </r>
        <r>  0.0035  0.0057  0.0036  0.0270  0.0030  0.0000  0.0001  0.0014  0.0013 </r>
       </set>
       <set comment="band 37">
        <r>  0.0014  0.0005  0.0003  0.0006  0.0032  0.0392  0.0130  0.2207  0.0331 </r>
        <r>  0.0012  0.0007  0.0003  0.0005  0.0183  0.1048  0.0116  0.1439  0.0191 </r>
        <r>  0.0000  0.0018  0.0000  0.0068  0.0000  0.0000  0.0000  0.0000  0.0000 </r>
        <r>  0.0000  0.0016  0.0000  0.0060  0.0001  0.0001  0.0000  0.0005  0.0004 </r>
        <r>  0.0051  0.0160  0.0028  0.0009  0.0004  0.0003  0.0002  0.0001  0.0002 </r>
        <r>  0.0000  0.0067  0.0000  0.0207  0.0003  0.0011  0.0000  0.0036  0.0009 </r>
        <r>  0.0049  0.0018  0.0026  0.0147  0.0001  0.0000  0.0002  0.0003  0.0005 </r>
        <r>  0.0038  0.0274  0.0020  0.0055  0.0005  0.0008  0.0002  0.0003  0.0003 </r>
        <r>  0.0000  0.0063  0.0000  0.0136  0.0002  0.0009  0.0000  0.0022  0.0006 </r>
        <r>  0.0036  0.0073  0.0020  0.0250  0.0000  0.0001  0.0002  0.0009  0.0009 </r>
       </set>
       <set comment="band 38">
        <r>  0.0002  0.0005  0.0002  0.0006  0.0351  0.1218  0.0040  0.0718  0.0247 </r>
        <r>  0.0002  0.0003  0.0002  0.0008  0.0371  0.1394  0.0041  0.0540  0.0220 </r>
        <r>  0.0056  0.0014  0.0300  0.0005  0.0000  0.0000  0.0000  0.0000  0.0000 </r>
        <r>  0.0305  0.0017  0.0225  0.0006  0.0001  0.0002  0.0017  0.0001  0.0000 </r>
        <r>  0.0010  0.0007  0.0033  0.0383  0.0002  0.0002  0.0001  0.0005  0.0011 </r>
        <r>  0.0007  0.0149  0.0012  0.0051  0.0002  0.0000  0.0000  0.0000  0.0001 </r>
        <r>  0.0010  0.0253  0.0033  0.0136  0.0012  0.0006  0.0001  0.0000  0.0000 </r>
        <r>  0.0008  0.0001  0.0140  0.0157  0.0001  0.0002  0.0001  0.0003  0.0006 </r>
        <r>  0.0005  0.0161  0.0040  0.0053  0.0002  0.0002  0.0001  0.0001  0.0001 </r>
        <r>  0.0008  0.0125  0.0139  0.0035  0.0004  0.0004  0.0001  0.0000  0.0003 </r>
       </set>
       <set comment="band 39">
        <r>  0.0038  0.0014  0.0012  0.0006  0.0201  0.0986  0.0068  0.0054  0.0156 </r>
        <r>  0.0037  0.0010  0.0012  0.0010  0.0317  0.0365  0.0067  0.0663  0.0038 </r>
        <r>  0.0000  0.0170  0.0000  0.0506  0.0000  0.0000  0.0000  0.0000  0.0000 </r>
        <r>  0.0000  0.0027  0.0000  0.0082  0.0001  0.0013  0.0000  0.0040  0.0002 </r>
        <r>  0.0020  0.0226  0.0010  0.0061  0.0004  0.0019  0.0001  0.0006  0.0003 </r>
        <r>  0.0000  0.0018  0.0000  0.0053  0.0002  0.0000  0.0000  0.0001  0.0005 </r>
        <r>  0.0021  0.0194  0.0009  0.0094  0.0006  0.0014  0.0001  0.0011  0.0001 </r>
        <r>  0.0052  0.0292  0.0011  0.0468  0.0007  0.0012  0.0003  0.0013  0.0019 </r>
        <r>  0.0000  0.0107  0.0000  0.0323  0.0008  0.0001  0.0000  0.0002  0.0024 </r>
        <r>  0.0052  0.0738  0.0011  0.0022  0.0014  0.0022  0.0003  0.0003  0.0012 </r>
       </set>
       <set comment="band 40">
        <r>  0.0093  0.0013  0.0017  0.0024  0.0017  0.0100  0.0095  0.0003  0.0395 </r>
        <r>  0.0092  0.0034  0.0017  0.0004  0.0348  0.0040  0.0094  0.0063  0.0065 </r>
        <r>  0.0117  0.0158  0.0228  0.0053  0.0000  0.0000  0.0000  0.0000  0.0000 </r>
        <r>  0.0057  0.0568  0.0585  0.0189  0.0058  0.0003  0.0043  0.0001  0.0019 </r>
        <r>  0.0006  0.0020  0.0053  0.0022  0.0043  0.0007  0.0004  0.0009  0.0029 </r>
        <r>  0.0200  0.0155  0.0236  0.0052  0.0008  0.0029  0.0000  0.0010  0.0003 </r>
        <r>  0.0006  0.0006  0.0053  0.0035  0.0058  0.0015  0.0004  0.0001  0.0015 </r>
        <r>  0.0003  0.0016  0.0059  0.0012  0.0009  0.0007  0.0010  0.0005  0.0009 </r>
        <r>  0.0025  0.0044  0.0052  0.0015  0.0006  0.0033  0.0001  0.0011  0.0002 </r>
        <r>  0.0003  0.0002  0.0060  0.0025  0.0016  0.0009  0.0010  0.0004  0.0003 </r>
       </set>
       <set comment="band 41">
        <r>  0.0087  0.0039  0.0007  0.0008  0.0342  0.0108  0.0126  0.0178  0.0073 </r>
        <r>  0.0085  0.0019  0.0007  0.0028  0.0086  0.0082  0.0123  0.0204  0.0330 </r>
        <r>  0.0125  0.0109  0.0195  0.0036  0.0000  0.0000  0.0000  0.0000  0.0000 </r>
        <r>  0.0052  0.0526  0.0578  0.0174  0.0060  0.0002  0.0053  0.0001  0.0019 </r>
        <r>  0.0029  0.0025  0.0152  0.0007  0.0043  0.0001  0.0001  0.0030  0.0004 </r>
        <r>  0.0071  0.0231  0.0141  0.0077  0.0044  0.0002  0.0012  0.0001  0.0015 </r>
        <r>  0.0029  0.0001  0.0151  0.0030  0.0018  0.0027  0.0001  0.0004  0.0029 </r>
        <r>  0.0007  0.0015  0.0033  0.0011  0.0013  0.0004  0.0001  0.0025  0.0001 </r>
        <r>  0.0041  0.0036  0.0164  0.0012  0.0010  0.0000  0.0010  0.0000  0.0003 </r>
        <r>  0.0008  0.0019  0.0032  0.0007  0.0006  0.0027  0.0001  0.0003  0.0007 </r>
       </set>
       <set comment="band 42">
        <r>  0.0093  0.0004  0.0013  0.0008  0.0106  0.0094  0.0076  0.0278  0.0127 </r>
        <r>  0.0096  0.0012  0.0014  0.0000  0.0060  0.0218  0.0079  0.0150  0.0169 </r>
        <r>  0.0000  0.0074  0.0000  0.0223  0.0000  0.0000  0.0000  0.0000  0.0000 </r>
        <r>  0.0000  0.0312  0.0000  0.0940  0.0033  0.0002  0.0000  0.0006  0.0100 </r>
        <r>  0.0100  0.0123  0.0007  0.0357  0.0026  0.0000  0.0012  0.0008  0.0051 </r>
        <r>  0.0000  0.0073  0.0000  0.0221  0.0027  0.0000  0.0000  0.0000  0.0081 </r>
        <r>  0.0099  0.0478  0.0007  0.0003  0.0021  0.0007  0.0012  0.0002  0.0056 </r>
        <r>  0.0009  0.0022  0.0013  0.0086  0.0007  0.0005  0.0013  0.0008  0.0014 </r>
        <r>  0.0000  0.0023  0.0000  0.0068  0.0006  0.0002  0.0000  0.0006  0.0019 </r>
        <r>  0.0009  0.0091  0.0013  0.0017  0.0004  0.0006  0.0013  0.0006  0.0017 </r>
       </set>
       <set comment="band 43">
        <r>  0.0009  0.0018  0.0004  0.0025  0.0001  0.0019  0.0040  0.0011  0.0014 </r>
        <r>  0.0009  0.0007  0.0004  0.0037  0.0012  0.0018  0.0040  0.0012  0.0002 </r>
        <r>  0.0013  0.0017  0.0043  0.0006  0.0000  0.0000  0.0000  0.0000  0.0000 </r>
        <r>  0.0036  0.0012  0.0040  0.0004  0.0003  0.0001  0.0056  0.0000  0.0001 </r>
        <r>  0.0006  0.0003  0.0020  0.0027  0.0002  0.0002  0.0010  0.0005  0.0001 </r>
        <r>  0.0022  0.0030  0.0026  0.0010  0.0005  0.0012  0.0028  0.0004  0.0002 </r>
        <r>  0.0006  0.0013  0.0020  0.0016  0.0000  0.0005  0.0010  0.0003  0.0002 </r>
        <r>  0.0005  0.0006  0.0020  0.0034  0.0002  0.0003  0.0006  0.0005  0.0001 </r>
        <r>  0.0033  0.0021  0.0038  0.0007  0.0003  0.0001  0.0044  0.0000  0.0001 </r>
        <r>  0.0005  0.0016  0.0020  0.0024  0.0000  0.0002  0.0006  0.0006  0.0003 </r>
       </set>
       <set comment="band 44">
        <r>  0.0028  0.0039  0.0020  0.0013  0.0038  0.0008  0.0003  0.0007  0.0052 </r>
        <r>  0.0029  0.0028  0.0019  0.0024  0.0040  0.0007  0.0003  0.0008  0.0052 </r>
        <r>  0.0000  0.0008  0.0000  0.0023  0.0000  0.0000  0.0000  0.0000  0.0000 </r>
        <r>  0.0000  0.0016  0.0000  0.0049  0.0002  0.0001  0.0000  0.0002  0.0005 </r>
        <r>  0.0004  0.0007  0.0056  0.0027  0.0003  0.0010  0.0010  0.0012  0.0006 </r>
        <r>  0.0000  0.0004  0.0000  0.0013  0.0003  0.0008  0.0000  0.0024  0.0008 </r>
        <r>  0.0004  0.0029  0.0056  0.0006  0.0002  0.0002  0.0010  0.0020  0.0007 </r>
        <r>  0.0028  0.0010  0.0120  0.0023  0.0001  0.0009  0.0029  0.0010  0.0001 </r>
        <r>  0.0000  0.0007  0.0000  0.0021  0.0000  0.0010  0.0000  0.0030  0.0001 </r>
        <r>  0.0027  0.0032  0.0119  0.0000  0.0000  0.0002  0.0029  0.0017  0.0002 </r>
       </set>
       <set comment="band 45">
        <r>  0.0022  0.0001  0.0001  0.0013  0.0014  0.0006  0.0074  0.0004  0.0020 </r>
        <r>  0.0022  0.0010  0.0001  0.0005  0.0014  0.0007  0.0073  0.0002  0.0023 </r>
        <r>  0.0000  0.0003  0.0000  0.0009  0.0000  0.0000  0.0000  0.0000  0.0000 </r>
        <r>  0.0000  0.0012  0.0000  0.0037  0.0003  0.0001  0.0000  0.0003  0.0010 </r>
        <r>  0.0025  0.0014  0.0075  0.0025  0.0000  0.0001  0.0033  0.0002  0.0004 </r>
        <r>  0.0000  0.0008  0.0000  0.0026  0.0002  0.0002  0.0000  0.0007  0.0005 </r>
        <r>  0.0025  0.0033  0.0076  0.0005  0.0002  0.0001  0.0032  0.0001  0.0002 </r>
        <r>  0.0013  0.0007  0.0009  0.0015  0.0000  0.0001  0.0007  0.0003  0.0002 </r>
        <r>  0.0000  0.0006  0.0000  0.0018  0.0001  0.0000  0.0000  0.0000  0.0002 </r>
        <r>  0.0013  0.0008  0.0010  0.0012  0.0001  0.0001  0.0007  0.0003  0.0001 </r>
       </set>
       <set comment="band 46">
        <r>  0.0165  0.0013  0.0065  0.0022  0.0061  0.0009  0.0043  0.0001  0.0099 </r>
        <r>  0.0165  0.0021  0.0066  0.0013  0.0053  0.0005  0.0044  0.0005  0.0102 </r>
        <r>  0.0000  0.0028  0.0005  0.0009  0.0000  0.0000  0.0000  0.0000  0.0000 </r>
        <r>  0.0002  0.0100  0.0036  0.0033  0.0028  0.0018  0.0002  0.0006  0.0009 </r>
        <r>  0.0002  0.0032  0.0005  0.0006  0.0020  0.0063  0.0001  0.0005  0.0004 </r>
        <r>  0.0009  0.0036  0.0110  0.0012  0.0003  0.0016  0.0056  0.0005  0.0001 </r>
        <r>  0.0002  0.0004  0.0004  0.0035  0.0014  0.0030  0.0001  0.0037  0.0011 </r>
        <r>  0.0006  0.0019  0.0003  0.0007  0.0012  0.0072  0.0004  0.0003  0.0000 </r>
        <r>  0.0010  0.0025  0.0099  0.0008  0.0004  0.0026  0.0033  0.0009  0.0001 </r>
        <r>  0.0006  0.0000  0.0003  0.0027  0.0005  0.0029  0.0004  0.0045  0.0007 </r>
       </set>
       <set comment="band 47">
        <r>  0.0294  0.0022  0.0012  0.0027  0.0016  0.0005  0.0001  0.0010  0.0019 </r>
        <r>  0.0292  0.0026  0.0013  0.0024  0.0004  0.0013  0.0001  0.0001  0.0030 </r>
        <r>  0.0008  0.0049  0.0100  0.0016  0.0000  0.0000  0.0000  0.0000  0.0000 </r>
        <r>  0.0005  0.0028  0.0129  0.0009  0.0005  0.0008  0.0031  0.0003  0.0002 </r>
        <r>  0.0005  0.0013  0.0028  0.0002  0.0005  0.0066  0.0003  0.0004  0.0002 </r>
        <r>  0.0003  0.0009  0.0108  0.0003  0.0011  0.0029  0.0004  0.0010  0.0004 </r>
        <r>  0.0004  0.0001  0.0028  0.0013  0.0000  0.0032  0.0003  0.0038  0.0006 </r>
        <r>  0.0007  0.0014  0.0058  0.0010  0.0023  0.0061  0.0001  0.0000  0.0002 </r>
        <r>  0.0003  0.0027  0.0043  0.0009  0.0032  0.0041  0.0003  0.0014  0.0011 </r>
        <r>  0.0007  0.0002  0.0059  0.0023  0.0002  0.0020  0.0001  0.0042  0.0023 </r>
       </set>
       <set comment="band 48">
        <r>  0.0018  0.0002  0.0002  0.0012  0.0002  0.0001  0.0001  0.0001  0.0004 </r>
        <r>  0.0018  0.0005  0.0002  0.0008  0.0003  0.0001  0.0001  0.0001  0.0003 </r>
        <r>  0.0005  0.0003  0.0000  0.0001  0.0000  0.0000  0.0000  0.0000  0.0000 </r>
        <r>  0.0006  0.0001  0.0004  0.0000  0.0000  0.0000  0.0004  0.0000  0.0000 </r>
        <r>  0.0001  0.0001  0.0003  0.0004  0.0000  0.0004  0.0003  0.0000  0.0001 </r>
        <r>  0.0004  0.0005  0.0014  0.0002  0.0000  0.0000  0.0003  0.0000  0.0000 </r>
        <r>  0.0001  0.0005  0.0003  0.0000  0.0000  0.0001  0.0003  0.0004  0.0000 </r>
        <r>  0.0002  0.0001  0.0006  0.0001  0.0004  0.0007  0.0002  0.0001  0.0001 </r>
        <r>  0.0002  0.0008  0.0002  0.0003  0.0002  0.0001  0.0002  0.0000  0.0001 </r>
        <r>  0.0002  0.0002  0.0006  0.0001  0.0000  0.0001  0.0002  0.0007  0.0005 </r>
       </set>
      </set>
     </set>
    </set>
   </array>
  </projected>
 </calculation>
 <structure name="finalpos" >
  <crystal>
   <varray name="basis" >
    <v>       6.35168425       0.00000001       0.00000000 </v>
    <v>       3.17584173       5.50071964       0.00000000 </v>
    <v>      -0.00000000       0.00000000      22.22126611 </v>
   </varray>
   <i name="volume">    776.38513375 </i>
   <varray name="rec_basis" >
    <v>       0.15743856      -0.09089719       0.00000000 </v>
    <v>      -0.00000000       0.18179440      -0.00000000 </v>
    <v>      -0.00000000      -0.00000000       0.04500194 </v>
   </varray>
  </crystal>
  <varray name="positions" >
   <v>       0.33333300       0.33333300       0.49992500 </v>
   <v>       0.66666700       0.66666700       0.50007500 </v>
   <v>       0.00000000      -0.00000000       0.44578691 </v>
   <v>       0.00000000       0.00000000       0.55178400 </v>
   <v>       0.62606092       0.00021010       0.57250988 </v>
   <v>       0.00021010       0.37372999       0.57250988 </v>
   <v>       0.37372999       0.62606092       0.57250988 </v>
   <v>       0.36982197       0.99974437       0.42958811 </v>
   <v>       0.99974437       0.63043267       0.42958811 </v>
   <v>       0.63043267       0.36982197       0.42958811 </v>
  </varray>
  <varray name="selective"  type="logical" >
   <v type="logical" >  F  F  F </v>
   <v type="logical" >  F  F  F </v>
   <v type="logical" >  T  T  T </v>
   <v type="logical" >  F  F  F </v>
   <v type="logical" >  T  T  T </v>
   <v type="logical" >  T  T  T </v>
   <v type="logical" >  T  T  T </v>
   <v type="logical" >  T  T  T </v>
   <v type="logical" >  T  T  T </v>
   <v type="logical" >  T  T  T </v>
  </varray>
  <nose>
   <v>      -3.00000000       0.00000000       0.00010000       0.00010000 </v>
  </nose>
 </structure>
</modeling>
