unknown system                          
           1
     6.907777   -0.000000    0.000000
     3.453888    5.982310    0.000000
     0.000000    0.000000   23.444588
   Cr   P    Ge   Se
   2   1   1   6
Direct configuration=     1
   0.33333300  0.33333300  0.49992500
   0.66666700  0.66666700  0.50007500
   0.00000000  0.00000000  0.44821600
   0.00000000  0.00000000  0.55178400
   0.62635700  0.00042000  0.57375200
   0.00042000  0.37322400  0.57375200
   0.37322400  0.62635700  0.57375200
   0.37364300  0.99958000  0.42624800
   0.99958000  0.62677600  0.42624800
   0.62677600  0.37364300  0.42624800
unknown system                          
           1
     6.271886    0.000000    0.000000
     3.135943    5.431613    0.000000
     0.000000    0.000000   22.080169
   Cr   P    Ge   Se
   2   1   1   6
Direct configuration=     2
   0.33333300  0.33333300  0.49992500
   0.66666700  0.66666700  0.50007500
   0.00000000 -0.00000000  0.44703881
   0.00000000  0.00000000  0.55178400
   0.63049069  0.00036685  0.57161320
   0.00036685  0.36914346  0.57161320
   0.36914346  0.63049069  0.57161320
   0.37039478  0.99962516  0.42914941
   0.99962516  0.62997905  0.42914941
   0.62997905  0.37039478  0.42914941
unknown system                          
           1
     6.346494    0.000000    0.000000
     3.173247    5.496225    0.000000
     0.000000    0.000000   22.240254
   Cr   P    Ge   Se
   2   1   1   6
Direct configuration=     3
   0.33333300  0.33333300  0.49992500
   0.66666700  0.66666700  0.50007500
   0.00000000 -0.00000000  0.44718546
   0.00000000  0.00000000  0.55178400
   0.62995652  0.00037372  0.57187965
   0.00037372  0.36967076  0.57187965
   0.36967076  0.62995652  0.57187965
   0.37081453  0.99961933  0.42878796
   0.99961933  0.62956514  0.42878796
   0.62956514  0.37081453  0.42878796
unknown system                          
           1
     6.339927    0.000000    0.000000
     3.169963    5.490538    0.000000
    -0.000000    0.000000   22.289208
   Cr   P    Ge   Se
   2   1   1   6
Direct configuration=     4
   0.33333300  0.33333300  0.49992500
   0.66666700  0.66666700  0.50007500
   0.00000000 -0.00000000  0.44597447
   0.00000000  0.00000000  0.55178400
   0.62825327  0.00029907  0.57216628
   0.00029907  0.37144866  0.57216628
   0.37144866  0.62825327  0.57216628
   0.36987861  0.99965165  0.42918262
   0.99965165  0.63046874  0.42918262
   0.63046874  0.36987861  0.42918262
unknown system                          
           1
     6.334897    0.000000    0.000000
     3.167448    5.486182    0.000000
    -0.000000    0.000000   22.326702
   Cr   P    Ge   Se
   2   1   1   6
Direct configuration=     5
   0.33333300  0.33333300  0.49992500
   0.66666700  0.66666700  0.50007500
   0.00000000 -0.00000000  0.44504900
   0.00000000  0.00000000  0.55178400
   0.62694739  0.00024185  0.57238533
   0.00024185  0.37281176  0.57238533
   0.37281176  0.62694739  0.57238533
   0.36916104  0.99967643  0.42948423
   0.99967643  0.63116153  0.42948423
   0.63116153  0.36916104  0.42948423
unknown system                          
           1
     6.347832    0.000000    0.000000
     3.173916    5.497384    0.000000
    -0.000000    0.000000   22.245462
   Cr   P    Ge   Se
   2   1   1   6
Direct configuration=     6
   0.33333300  0.33333300  0.49992500
   0.66666700  0.66666700  0.50007500
   0.00000000 -0.00000000  0.44561710
   0.00000000  0.00000000  0.55178400
   0.62626402  0.00021737  0.57248122
   0.00021737  0.37351960  0.57248122
   0.37351960  0.62626402  0.57248122
   0.36967054  0.99972880  0.42956421
   0.99972880  0.63059966  0.42956421
   0.63059966  0.36967054  0.42956421
unknown system                          
           1
     6.351684    0.000000    0.000000
     3.175842    5.500720    0.000000
    -0.000000    0.000000   22.221266
   Cr   P    Ge   Se
   2   1   1   6
Direct configuration=     7
   0.33333300  0.33333300  0.49992500
   0.66666700  0.66666700  0.50007500
   0.00000000 -0.00000000  0.44578691
   0.00000000  0.00000000  0.55178400
   0.62606092  0.00021010  0.57250988
   0.00021010  0.37372999  0.57250988
   0.37372999  0.62606092  0.57250988
   0.36982197  0.99974437  0.42958811
   0.99974437  0.63043267  0.42958811
   0.63043267  0.36982197  0.42958811
