       N       E                     dE             d eps       ncg     rms          rms(c)
DAV:   1     0.408463480919E+03    0.40846E+03   -0.19688E+04   960   0.948E+02
DAV:   2     0.306629381943E+02   -0.37780E+03   -0.35611E+03  1456   0.198E+02
DAV:   3    -0.409728593708E+02   -0.71636E+02   -0.68452E+02  1264   0.773E+01
DAV:   4    -0.438368774380E+02   -0.28640E+01   -0.28484E+01  1184   0.206E+01
DAV:   5    -0.439189383656E+02   -0.82061E-01   -0.82079E-01  1360   0.364E+00    0.444E+01
DAV:   6    -0.103716456070E+03   -0.59798E+02   -0.80758E+02  1312   0.193E+02    0.653E+01
DAV:   7    -0.529833215277E+02    0.50733E+02   -0.71994E+01  1152   0.510E+01    0.345E+01
DAV:   8    -0.390436430610E+02    0.13940E+02   -0.16525E+01  1216   0.334E+01    0.225E+01
DAV:   9    -0.355234067387E+02    0.35202E+01   -0.57813E+00  1328   0.324E+01    0.654E+00
DAV:  10    -0.358132687517E+02   -0.28986E+00   -0.23076E+00  1168   0.734E+00    0.928E+00
DAV:  11    -0.356927815888E+02    0.12049E+00   -0.35767E-01  1136   0.530E+00    0.594E+00
DAV:  12    -0.356203935069E+02    0.72388E-01   -0.78267E-02  1456   0.201E+00    0.513E+00
DAV:  13    -0.354382903280E+02    0.18210E+00   -0.51246E-01  1248   0.534E+00    0.821E+00
DAV:  14    -0.355260471662E+02   -0.87757E-01   -0.10597E-01  1184   0.352E+00    0.842E+00
DAV:  15    -0.347568101141E+02    0.76924E+00   -0.79704E-01  1216   0.124E+01    0.590E+00
DAV:  16    -0.344030763320E+02    0.35373E+00   -0.22712E+00  1296   0.120E+01    0.183E+01
DAV:  17    -0.344764517436E+02   -0.73375E-01   -0.31334E-01  1104   0.316E+00    0.197E+01
DAV:  18    -0.339919432736E+02    0.48451E+00   -0.12078E-01  1168   0.313E+00    0.203E+01
DAV:  19    -0.345223240044E+02   -0.53038E+00   -0.67507E-01  1104   0.370E+00    0.256E+01
DAV:  20    -0.342407206136E+02    0.28160E+00   -0.89786E-02  1104   0.196E+00    0.253E+01
DAV:  21    -0.711359181015E+02   -0.36895E+02   -0.11933E-01  1360   0.338E+00    0.390E+01
DAV:  22    -0.209113497415E+03   -0.13798E+03   -0.13508E+03  1328   0.419E+01    0.310E+01
DAV:  23    -0.346414705895E+02    0.17447E+03   -0.15159E+03  1136   0.411E+01    0.227E+01
DAV:  24    -0.346757544865E+02   -0.34284E-01   -0.29841E+02  1104   0.133E+01    0.222E+01
DAV:  25    -0.353589204664E+02   -0.68317E+00   -0.13594E-01  1120   0.308E+00    0.205E+01
DAV:  26    -0.353636710930E+02   -0.47506E-02   -0.15426E+00  1344   0.140E+01    0.104E+01
DAV:  27    -0.355704373053E+02   -0.20677E+00   -0.29148E-01  1264   0.387E+00    0.118E+01
DAV:  28    -0.358882906947E+02   -0.31785E+00   -0.16184E-01  1280   0.428E+00    0.818E+00
DAV:  29    -0.360962866883E+02   -0.20800E+00   -0.47615E-01  1216   0.941E+00    0.307E+00
DAV:  30    -0.361589335793E+02   -0.62647E-01   -0.18306E-01  1408   0.279E+00    0.326E+00
DAV:  31    -0.361640069368E+02   -0.50734E-02   -0.27997E-02  1152   0.126E+00    0.305E+00
DAV:  32    -0.360717728906E+02    0.92234E-01   -0.20110E-01  1136   0.441E+00    0.273E+00
DAV:  33    -0.360333780206E+02    0.38395E-01   -0.41481E-02  1184   0.227E+00    0.330E+00
DAV:  34    -0.361065624430E+02   -0.73184E-01   -0.31153E-02  1200   0.135E+00    0.229E+00
DAV:  35    -0.361581481591E+02   -0.51586E-01   -0.21733E-02  1248   0.130E+00    0.990E-01
DAV:  36    -0.361710454235E+02   -0.12897E-01   -0.82341E-03  1136   0.714E-01    0.264E-01
DAV:  37    -0.361710764085E+02   -0.30985E-04   -0.18010E-03  1184   0.293E-01    0.166E-01
DAV:  38    -0.361718286391E+02   -0.75223E-03   -0.26081E-04   864   0.132E-01    0.119E-01
DAV:  39    -0.361719616386E+02   -0.13300E-03   -0.49584E-05   720   0.579E-02    0.119E-01
DAV:  40    -0.361721005471E+02   -0.13891E-03   -0.67917E-05   688   0.662E-02    0.111E-01
DAV:  41    -0.361721500825E+02   -0.49535E-04   -0.42836E-05   672   0.547E-02
   1 F= -.36172150E+02 E0= -.36172150E+02  d E =-.361722E+02  mag=     1.9998
       N       E                     dE             d eps       ncg     rms          rms(c)
DAV:   1    -0.180228733092E+03   -0.14406E+03   -0.14599E+03  1296   0.315E+02    0.110E+02
DAV:   2    -0.353553787538E+03   -0.17333E+03   -0.27864E+03  1456   0.323E+02    0.653E+01
DAV:   3    -0.744943549930E+02    0.27906E+03   -0.68434E+02  1184   0.143E+02    0.364E+01
DAV:   4    -0.647028585190E+02    0.97915E+01   -0.41409E+02  1408   0.266E+02    0.590E+01
DAV:   5    -0.448233157266E+02    0.19880E+02   -0.79413E+01  1328   0.784E+01    0.624E+00
DAV:   6    -0.451295335440E+02   -0.30622E+00   -0.88663E+00  1520   0.248E+01    0.607E+00
DAV:   7    -0.471075580075E+02   -0.19780E+01   -0.34138E+00  1584   0.214E+01    0.140E+01
DAV:   8    -0.459872816493E+02    0.11203E+01   -0.10179E+00  1440   0.111E+01    0.956E+00
DAV:   9    -0.448607370020E+02    0.11265E+01   -0.27213E+00  1216   0.212E+01    0.200E+00
DAV:  10    -0.448931868037E+02   -0.32450E-01   -0.33748E-01  1328   0.307E+00    0.126E+00
DAV:  11    -0.448860254918E+02    0.71613E-02   -0.50289E-02  1376   0.196E+00    0.589E-01
DAV:  12    -0.448836559220E+02    0.23696E-02   -0.30123E-02  1312   0.182E+00    0.500E-01
DAV:  13    -0.448815678852E+02    0.20880E-02   -0.37911E-03  1264   0.315E-01    0.550E-01
DAV:  14    -0.448809208499E+02    0.64704E-03   -0.34899E-03  1200   0.231E-01    0.526E-01
DAV:  15    -0.448802173036E+02    0.70355E-03   -0.17668E-03  1392   0.399E-01    0.382E-01
DAV:  16    -0.448781555891E+02    0.20617E-02   -0.17613E-03  1152   0.366E-01    0.230E-01
DAV:  17    -0.448798469705E+02   -0.16914E-02   -0.13355E-03   992   0.263E-01    0.148E-01
DAV:  18    -0.448817030855E+02   -0.18561E-02   -0.30191E-04   992   0.880E-02    0.164E-01
DAV:  19    -0.448818213738E+02   -0.11829E-03   -0.47172E-04  1008   0.866E-02    0.166E-01
DAV:  20    -0.448812739404E+02    0.54743E-03   -0.25248E-04   912   0.182E-01    0.956E-02
DAV:  21    -0.448805504408E+02    0.72350E-03   -0.30861E-04   960   0.119E-01    0.494E-02
DAV:  22    -0.448803711887E+02    0.17925E-03   -0.10772E-04   944   0.945E-02    0.756E-02
DAV:  23    -0.448806637084E+02   -0.29252E-03   -0.99911E-05   864   0.902E-02    0.485E-02
DAV:  24    -0.448809051245E+02   -0.24142E-03   -0.81952E-05   784   0.984E-02    0.172E-02
DAV:  25    -0.448811120873E+02   -0.20696E-03   -0.41284E-05   736   0.395E-02    0.617E-03
DAV:  26    -0.448813177708E+02   -0.20568E-03   -0.62211E-05   800   0.417E-02    0.156E-02
DAV:  27    -0.448814101852E+02   -0.92414E-04   -0.42468E-05   768   0.474E-02
   2 F= -.44881410E+02 E0= -.44881410E+02  d E =-.870926E+01  mag=     1.9988
       N       E                     dE             d eps       ncg     rms          rms(c)
DAV:   1    -0.452791222809E+02   -0.39780E+00   -0.42809E+00  1088   0.199E+01    0.541E+00
DAV:   2    -0.465274976744E+02   -0.12484E+01   -0.78226E+00  1088   0.418E+01    0.114E+01
DAV:   3    -0.449355914745E+02    0.15919E+01   -0.33616E+00  1008   0.371E+01    0.126E+00
DAV:   4    -0.449506035462E+02   -0.15012E-01   -0.44044E-01  1216   0.316E+00    0.156E+00
DAV:   5    -0.449181785240E+02    0.32425E-01   -0.49261E-02  1216   0.329E+00    0.340E-01
DAV:   6    -0.449183015634E+02   -0.12304E-03   -0.73286E-03  1360   0.586E-01    0.693E-02
DAV:   7    -0.449183713836E+02   -0.69820E-04   -0.66672E-04  1024   0.177E-01
   3 F= -.44918371E+02 E0= -.44918371E+02  d E =-.874622E+01  mag=     1.9850
       N       E                     dE             d eps       ncg     rms          rms(c)
DAV:   1    -0.449246795278E+02   -0.63780E-02   -0.22016E-01  1072   0.171E+00    0.164E-01
DAV:   2    -0.449254794458E+02   -0.79992E-03   -0.12829E-02  1120   0.728E-01    0.173E-01
DAV:   3    -0.449253978688E+02    0.81577E-04   -0.18501E-03  1184   0.659E-01    0.119E-01
DAV:   4    -0.449253071712E+02    0.90698E-04   -0.40480E-04   896   0.302E-01
   4 F= -.44925307E+02 E0= -.44925307E+02  d E =-.693579E-02  mag=     1.9918
       N       E                     dE             d eps       ncg     rms          rms(c)
DAV:   1    -0.449253810938E+02    0.16775E-04   -0.20155E-04   864   0.826E-02    0.138E-02
DAV:   2    -0.449254259610E+02   -0.44867E-04   -0.15513E-04   832   0.705E-02
   5 F= -.44925426E+02 E0= -.44925426E+02  d E =-.705458E-02  mag=     1.9935
       N       E                     dE             d eps       ncg     rms          rms(c)
DAV:   1    -0.449345227389E+02   -0.91416E-02   -0.19575E-01  1184   0.274E+00    0.735E-01
DAV:   2    -0.449544597198E+02   -0.19937E-01   -0.11664E-01  1024   0.571E+00    0.149E+00
DAV:   3    -0.449274535473E+02    0.27006E-01   -0.66657E-02   992   0.485E+00    0.269E-01
DAV:   4    -0.449258821677E+02    0.15714E-02   -0.75630E-03  1120   0.422E-01    0.142E-01
DAV:   5    -0.449256821982E+02    0.19997E-03   -0.62425E-04  1056   0.347E-01    0.299E-02
DAV:   6    -0.449257359636E+02   -0.53765E-04   -0.19850E-04   992   0.669E-02
   6 F= -.44925736E+02 E0= -.44925736E+02  d E =-.310003E-03  mag=     1.9976
       N       E                     dE             d eps       ncg     rms          rms(c)
DAV:   1    -0.449261052585E+02   -0.42306E-03   -0.36187E-03  1040   0.401E-01    0.102E-01
DAV:   2    -0.449263771000E+02   -0.27184E-03   -0.23497E-03   960   0.817E-01    0.213E-01
DAV:   3    -0.449259007062E+02    0.47639E-03   -0.13411E-03   992   0.677E-01    0.365E-02
DAV:   4    -0.449259848574E+02   -0.84151E-04   -0.19319E-04   800   0.678E-02
   7 F= -.44925985E+02 E0= -.44925985E+02  d E =-.558896E-03  mag=     1.9987
