 vasp.5.4.4.18Apr17-6-g9f103f2a35 (build May  1 2020 15:48:39) complex           
 executed on             LinuxGNU date 2020.06.21  16:57:47
 running on   16 total cores
 distrk:  each k-point on   16 cores,    1 groups
 distr:  one band on NCORES_PER_BAND=   1 cores,   16 groups


--------------------------------------------------------------------------------------------------------


 INCAR:
 POTCAR:   PAW_PBE Ni 06Sep2000                   
 POTCAR:   PAW_PBE Si 05Jan2001                   
 POTCAR:    PAW_PBE S 17Jan2003                   

 ----------------------------------------------------------------------------- 
|                                                                             |
|           W    W    AA    RRRRR   N    N  II  N    N   GGGG   !!!           |
|           W    W   A  A   R    R  NN   N  II  NN   N  G    G  !!!           |
|           W    W  A    A  R    R  N N  N  II  N N  N  G       !!!           |
|           W WW W  AAAAAA  RRRRR   N  N N  II  N  N N  G  GGG   !            |
|           WW  WW  A    A  R   R   N   NN  II  N   NN  G    G                |
|           W    W  A    A  R    R  N    N  II  N    N   GGGG   !!!           |
|                                                                             |
|      For optimal performance we recommend to set                            |
|        NCORE= 4 - approx SQRT( number of cores)                             |
|      NCORE specifies how many cores store one orbital (NPAR=cpu/NCORE).     |
|      This setting can  greatly improve the performance of VASP for DFT.     |
|      The default,   NCORE=1            might be grossly inefficient         |
|      on modern multi-core architectures or massively parallel machines.     |
|      Do your own testing !!!!                                               |
|      Unfortunately you need to use the default for GW and RPA calculations. |
|      (for HF NCORE is supported but not extensively tested yet)             |
|                                                                             |
 ----------------------------------------------------------------------------- 


 ----------------------------------------------------------------------------- 
|                                                                             |
|  ADVICE TO THIS USER RUNNING 'VASP/VAMP'   (HEAR YOUR MASTER'S VOICE ...):  |
|                                                                             |
|      You have switched on vdW-DFT.                                          |
|      This routine was written and supplied by Jiri Klimes.                  |
|      We recommed that you carefully read and cite the following             |
|      publication                                                            |
|      J. Klimes, D.R. Bowler, A. Michelides                                  |
|        J. Phys.: Cond Matt. 22 022201 (2010)                                |
|      J. Klimes, D.R. Bowler, A. Michelides                                  |
|        Phys. Rev. B. 83, 195131 (2011)                                      |
|      and references therein.                                                |
|                                                                             |
 ----------------------------------------------------------------------------- 

 POTCAR:   PAW_PBE Ni 06Sep2000                   
   VRHFIN =Ni:                                                                  
   LEXCH  = PE                                                                  
   EATOM  =  1077.9025 eV,   79.2236 Ry                                         
                                                                                
   TITEL  = PAW_PBE Ni 06Sep2000                                                
   LULTRA =        F    use ultrasoft PP ?                                      
   IUNSCR =        1    unscreen: 0-lin 1-nonlin 2-no                           
   RPACOR =    2.000    partial core radius                                     
   POMASS =   58.690; ZVAL   =   10.000    mass and valenz                      
   RCORE  =    2.300    outmost cutoff radius                                   
   RWIGS  =    2.430; RWIGS  =    1.286    wigner-seitz radius (au A)           
   ENMAX  =  269.533; ENMIN  =  202.150 eV                                      
   RCLOC  =    1.681    cutoff for local pot                                    
   LCOR   =        T    correct aug charges                                     
   LPAW   =        T    paw PP                                                  
   EAUG   =  544.565                                                            
   DEXC   =    -.009                                                            
   RMAX   =    2.808    core radius for proj-oper                               
   RAUG   =    1.300    factor for augmentation sphere                          
   RDEP   =    2.390    radius for radial grids                                 
   QCUT   =   -4.451; QGAM   =    8.902    optimization parameters              
                                                                                
   Description                                                                  
     l     E      TYP  RCUT    TYP  RCUT                                        
     2   .000     23  2.300                                                     
     2   .000     23  2.300                                                     
     0   .000     23  2.300                                                     
     0   .000     23  2.300                                                     
     1  -.200     23  2.300                                                     
     1   .000     23  2.300                                                     
     3   .000      7   .000                                                     
  local pseudopotential read in
  partial core-charges read in
  atomic valenz-charges read in
  non local Contribution for L=           2  read in
    real space projection operators read in
  non local Contribution for L=           2  read in
    real space projection operators read in
  non local Contribution for L=           0  read in
    real space projection operators read in
  non local Contribution for L=           0  read in
    real space projection operators read in
  non local Contribution for L=           1  read in
    real space projection operators read in
  non local Contribution for L=           1  read in
    real space projection operators read in
    PAW grid and wavefunctions read in

   number of l-projection  operators is LMAX  =           6
   number of lm-projection operators is LMMAX =          18

 POTCAR:   PAW_PBE Si 05Jan2001                   
   VRHFIN =Si: s2p2                                                             
   LEXCH  = PE                                                                  
   EATOM  =   103.0669 eV,    7.5752 Ry                                         
                                                                                
   TITEL  = PAW_PBE Si 05Jan2001                                                
   LULTRA =        F    use ultrasoft PP ?                                      
   IUNSCR =        1    unscreen: 0-lin 1-nonlin 2-no                           
   RPACOR =    1.500    partial core radius                                     
   POMASS =   28.085; ZVAL   =    4.000    mass and valenz                      
   RCORE  =    1.900    outmost cutoff radius                                   
   RWIGS  =    2.480; RWIGS  =    1.312    wigner-seitz radius (au A)           
   ENMAX  =  245.345; ENMIN  =  184.009 eV                                      
   ICORE  =        2    local potential                                         
   LCOR   =        T    correct aug charges                                     
   LPAW   =        T    paw PP                                                  
   EAUG   =  322.069                                                            
   DEXC   =    -.007                                                            
   RMAX   =    2.944    core radius for proj-oper                               
   RAUG   =    1.300    factor for augmentation sphere                          
   RDEP   =    1.993    radius for radial grids                                 
   QCUT   =   -4.246; QGAM   =    8.493    optimization parameters              
                                                                                
   Description                                                                  
     l     E      TYP  RCUT    TYP  RCUT                                        
     0   .000     23  1.900                                                     
     0   .000     23  1.900                                                     
     1   .000     23  1.900                                                     
     1   .000     23  1.900                                                     
     2   .000      7  1.900                                                     
  local pseudopotential read in
  partial core-charges read in
  atomic valenz-charges read in
  non local Contribution for L=           0  read in
    real space projection operators read in
  non local Contribution for L=           0  read in
    real space projection operators read in
  non local Contribution for L=           1  read in
    real space projection operators read in
  non local Contribution for L=           1  read in
    real space projection operators read in
    PAW grid and wavefunctions read in

   number of l-projection  operators is LMAX  =           4
   number of lm-projection operators is LMMAX =           8

 POTCAR:    PAW_PBE S 17Jan2003                   
   VRHFIN =S : s2p4                                                             
   LEXCH  = PE                                                                  
   EATOM  =   276.8230 eV,   20.3459 Ry                                         
                                                                                
   TITEL  = PAW_PBE S 17Jan2003                                                 
   LULTRA =        F    use ultrasoft PP ?                                      
   IUNSCR =        1    unscreen: 0-lin 1-nonlin 2-no                           
   RPACOR =    1.500    partial core radius                                     
   POMASS =   32.066; ZVAL   =    6.000    mass and valenz                      
   RCORE  =    1.900    outmost cutoff radius                                   
   RWIGS  =    2.200; RWIGS  =    1.164    wigner-seitz radius (au A)           
   ENMAX  =  280.000; ENMIN  =  194.016 eV                                      
   ICORE  =        2    local potential                                         
   LCOR   =        T    correct aug charges                                     
   LPAW   =        T    paw PP                                                  
   EAUG   =  335.092                                                            
   DEXC   =     .000                                                            
   RMAX   =    2.867    core radius for proj-oper                               
   RAUG   =    1.300    factor for augmentation sphere                          
   RDEP   =    1.954    radius for radial grids                                 
   QCUT   =   -4.360; QGAM   =    8.721    optimization parameters              
                                                                                
   Description                                                                  
     l     E      TYP  RCUT    TYP  RCUT                                        
     0   .000     23  1.900                                                     
     0   .000     23  1.900                                                     
     1   .000     23  1.900                                                     
     1   .000     23  1.900                                                     
     2   .000     23  1.900                                                     
  local pseudopotential read in
  partial core-charges read in
  atomic valenz-charges read in
  non local Contribution for L=           0  read in
    real space projection operators read in
  non local Contribution for L=           0  read in
    real space projection operators read in
  non local Contribution for L=           1  read in
    real space projection operators read in
  non local Contribution for L=           1  read in
    real space projection operators read in
    PAW grid and wavefunctions read in

   number of l-projection  operators is LMAX  =           4
   number of lm-projection operators is LMMAX =           8

 Optimization of the real space projectors (new method)

 maximal supplied QI-value         = 16.25
 optimisation between [QCUT,QGAM] = [ 11.54, 23.24] = [ 37.28,151.24] Ry 
 Optimized for a Real-space Cutoff    1.49 Angstroem

   l    n(q)    QCUT    max X(q) W(low)/X(q) W(high)/X(q)  e(spline) 
   2      9    11.539     4.811    0.20E-04    0.14E-04    0.45E-07
   2      9    11.539    15.146    0.24E-03    0.12E-03    0.20E-06
   0     10    11.539    14.357    0.18E-04    0.12E-05    0.14E-07
   0     10    11.539    43.282    0.39E-04    0.17E-04    0.23E-06
   1     10    11.539     5.514    0.99E-05    0.13E-04    0.19E-07
   1     10    11.539     7.697    0.38E-04    0.79E-04    0.91E-07
 Optimization of the real space projectors (new method)

 maximal supplied QI-value         = 19.84
 optimisation between [QCUT,QGAM] = [ 11.51, 23.22] = [ 37.09,150.92] Ry 
 Optimized for a Real-space Cutoff    1.21 Angstroem

   l    n(q)    QCUT    max X(q) W(low)/X(q) W(high)/X(q)  e(spline) 
   0      8    11.508     8.708    0.18E-04    0.44E-05    0.47E-08
   0      8    11.508   106.241    0.70E-04    0.15E-03    0.51E-07
   1      8    11.508     5.901    0.63E-05    0.23E-04    0.21E-07
   1      8    11.508    73.241    0.15E-03    0.36E-04    0.79E-07
 Optimization of the real space projectors (new method)

 maximal supplied QI-value         = 19.84
 optimisation between [QCUT,QGAM] = [ 11.51, 23.22] = [ 37.09,150.92] Ry 
 Optimized for a Real-space Cutoff    1.21 Angstroem

   l    n(q)    QCUT    max X(q) W(low)/X(q) W(high)/X(q)  e(spline) 
   0      8    11.508     5.487    0.18E-04    0.22E-05    0.47E-08
   0      8    11.508    85.627    0.96E-04    0.18E-03    0.54E-07
   1      8    11.508     3.530    0.17E-04    0.28E-04    0.21E-07
   1      8    11.508    42.714    0.18E-03    0.63E-04    0.92E-07

 ----------------------------------------------------------------------------- 
|                                                                             |
|  ADVICE TO THIS USER RUNNING 'VASP/VAMP'   (HEAR YOUR MASTER'S VOICE ...):  |
|                                                                             |
|      You enforced a specific xc-type in the INCAR file,                     |
|      a different type was found on the POTCAR file                          |
|          I HOPE YOU KNOW, WHAT YOU ARE  DOING                               |
|                                                                             |
 ----------------------------------------------------------------------------- 

 PAW_PBE Ni 06Sep2000                   :
 energy of atom  1       EATOM=-1077.9025
 kinetic energy error for atom=    0.0030 (will be added to EATOM!!)
 PAW_PBE Si 05Jan2001                   :
 energy of atom  2       EATOM= -103.0669
 kinetic energy error for atom=    0.0005 (will be added to EATOM!!)
  PAW_PBE S 17Jan2003                   :
 energy of atom  3       EATOM= -276.8230
 kinetic energy error for atom=    0.0016 (will be added to EATOM!!)


 POSCAR: Ni2 Si2 S6                              
  positions in direct lattice
  velocities in cartesian coordinates
  No initial velocities read in
 exchange correlation table for  LEXCH =       42
   RHO(1)=    0.500       N(1)  =     2000
   RHO(2)=  100.500       N(2)  =     4000



--------------------------------------------------------------------------------------------------------


 ion  position               nearest neighbor table
   1  0.333  0.333  0.500-   6 2.78   5 2.78   7 2.78   8 2.78  10 2.78   9 2.78
   2  0.667  0.667  0.500-   9 2.78   8 2.78  10 2.78   5 2.78   7 2.78   6 2.78
   3  0.000  0.000  0.448-   4 2.43   8 2.63  10 2.63   9 2.63
   4  0.000  0.000  0.552-   3 2.43   5 2.63   7 2.63   6 2.63
   5  0.626  0.000  0.574-   4 2.63   1 2.78   2 2.78
   6  0.000  0.373  0.574-   4 2.63   1 2.78   2 2.78
   7  0.373  0.626  0.574-   4 2.63   1 2.78   2 2.78
   8  0.374  1.000  0.426-   3 2.63   2 2.78   1 2.78
   9  1.000  0.627  0.426-   3 2.63   2 2.78   1 2.78
  10  0.627  0.374  0.426-   3 2.63   2 2.78   1 2.78

  LATTYP: Found a hexagonal cell.
 ALAT       =     6.9077769333
 C/A-ratio  =     3.3939410937
  
  Lattice vectors:
  
 A1 = (   3.4538890000,  -5.9823100000,   0.0000000000)
 A2 = (  -6.9077770000,   0.0000000000,   0.0000000000)
 A3 = (   0.0000000000,   0.0000000000, -23.4445880000)


Analysis of symmetry for initial positions (statically):
=====================================================================
 Subroutine PRICEL returns:
 Original cell was already a primitive cell.
 

 Routine SETGRP: Setting up the symmetry group for a 
 hexagonal supercell.


 Subroutine GETGRP returns: Found  6 space group operations
 (whereof  6 operations were pure point group operations)
 out of a pool of 24 trial point group operations.


The static configuration has the point symmetry S_6 .


Analysis of symmetry for dynamics (positions and initial velocities):
=====================================================================
 Subroutine PRICEL returns:
 Original cell was already a primitive cell.
 

 Routine SETGRP: Setting up the symmetry group for a 
 hexagonal supercell.


 Subroutine GETGRP returns: Found  6 space group operations
 (whereof  6 operations were pure point group operations)
 out of a pool of 24 trial point group operations.


The dynamic configuration has the point symmetry S_6 .


Analysis of constrained symmetry for selective dynamics:
=====================================================================
 Subroutine PRICEL returns:
 Original cell was already a primitive cell.
 

 Routine SETGRP: Setting up the symmetry group for a 
 hexagonal supercell.


 Subroutine GETGRP returns: Found  6 space group operations
 (whereof  6 operations were pure point group operations)
 out of a pool of 24 trial point group operations.


The constrained configuration has the point symmetry S_6 .


Analysis of structural, dynamic, and magnetic symmetry:
=====================================================================
 Subroutine PRICEL returns:
 Original cell was already a primitive cell.
 

 Routine SETGRP: Setting up the symmetry group for a 
 hexagonal supercell.


 Subroutine GETGRP returns: Found  6 space group operations
 (whereof  6 operations were pure point group operations)
 out of a pool of 24 trial point group operations.


The magnetic configuration has the point symmetry S_6 .


 Subroutine INISYM returns: Found  6 space group operations
 (whereof  6 operations are pure point group operations),
 and found     1 'primitive' translations



 KPOINTS: Kpoints from vasprun.xml                

Automatic generation of k-mesh.
Space group operators:
 irot       det(A)        alpha          n_x          n_y          n_z        tau_x        tau_y        tau_z
    1     1.000000     0.000000     1.000000     0.000000     0.000000     0.000000     0.000000     0.000000
    2    -1.000000     0.000000     1.000000     0.000000     0.000000     0.000000     0.000000     0.000000
    3     1.000000   120.000000     0.000000     0.000000     1.000000     0.000000     0.000000     0.000000
    4    -1.000000   120.000000     0.000000     0.000000     1.000000     0.000000     0.000000     0.000000
    5     1.000000   120.000000     0.000000     0.000000    -1.000000     0.000000     0.000000     0.000000
    6    -1.000000   120.000000     0.000000     0.000000    -1.000000     0.000000     0.000000     0.000000
 
 Subroutine IBZKPT returns following result:
 ===========================================
 
 Found      5 irreducible k-points:
 
 Following reciprocal coordinates:
            Coordinates               Weight
  0.000000  0.000000  0.000000      1.000000
  0.200000  0.000000  0.000000      6.000000
  0.400000  0.000000  0.000000      6.000000
  0.400000  0.200000  0.000000      6.000000
 -0.400000  0.200000  0.000000      6.000000
 
 Following cartesian coordinates:
            Coordinates               Weight
  0.000000  0.000000  0.000000      1.000000
  0.028953 -0.016716  0.000000      6.000000
  0.057906 -0.033432  0.000000      6.000000
  0.057906  0.000000  0.000000      6.000000
 -0.057906  0.066864  0.000000      6.000000
 
 TETIRR: Found     15 inequivalent tetrahedra from      150


--------------------------------------------------------------------------------------------------------




 Dimension of arrays:
   k-points           NKPTS =      5   k-points in BZ     NKDIM =      5   number of bands    NBANDS=     48
   number of dos      NEDOS =    301   number of ions     NIONS =     10
   non local maximal  LDIM  =      6   non local SUM 2l+1 LMDIM =     18
   total plane-waves  NPLWV = 524880
   max r-space proj   IRMAX =   7543   max aug-charges    IRDMAX=  18311
   dimension x,y,z NGX =    54 NGY =   54 NGZ =  180
   dimension x,y,z NGXF=   108 NGYF=  108 NGZF=  360
   support grid    NGXF=   108 NGYF=  108 NGZF=  360
   ions per type =               2   2   6
   NGX,Y,Z   is equivalent  to a cutoff of  13.00, 13.00, 12.76 a.u.
   NGXF,Y,Z  is equivalent  to a cutoff of  25.99, 25.99, 25.53 a.u.

 SYSTEM =  unknown system                          
 POSCAR =  Ni2 Si2 S6                              

 Startparameter for this run:
   NWRITE =      2    write-flag & timer
   PREC   = accura    normal or accurate (medium, high low for compatibility)
   ISTART =      0    job   : 0-new  1-cont  2-samecut
   ICHARG =      2    charge: 1-file 2-atom 10-const
   ISPIN  =      2    spin polarized calculation?
   LNONCOLLINEAR =      F non collinear calculations
   LSORBIT =      F    spin-orbit coupling
   INIWAV =      1    electr: 0-lowe 1-rand  2-diag
   LASPH  =      F    aspherical Exc in radial PAW
   METAGGA=      F    non-selfconsistent MetaGGA calc.

 Electronic Relaxation 1
   ENCUT  =  520.0 eV  38.22 Ry    6.18 a.u.  12.84 12.84 43.59*2*pi/ulx,y,z
   ENINI  =  520.0     initial cutoff
   ENAUG  =  544.6 eV  augmentation charge cutoff
   NELM   =    400;   NELMIN=  2; NELMDL=  0     # of ELM steps 
   EDIFF  = 0.1E-03   stopping-criterion for ELM
   LREAL  =      T    real-space projection
   NLSPLINE    = F    spline interpolate recip. space projectors
   LCOMPAT=      F    compatible to vasp.4.4
   GGA_COMPAT  = T    GGA compatible to vasp.4.4-vasp.4.6
   LMAXPAW     = -100 max onsite density
   LMAXMIX     =    2 max onsite mixed and CHGCAR
   VOSKOWN=      0    Vosko Wilk Nusair interpolation
   ROPT   =   -0.00025  -0.00025  -0.00025
 Ionic relaxation
   EDIFFG = 0.1E-02   stopping-criterion for IOM
   NSW    =     99    number of steps for IOM
   NBLOCK =      1;   KBLOCK =     99    inner block; outer block 
   IBRION =      2    ionic relax: 0-MD 1-quasi-New 2-CG
   NFREE  =      1    steps in history (QN), initial steepest desc. (CG)
   ISIF   =      3    stress and relaxation
   IWAVPR =     11    prediction:  0-non 1-charg 2-wave 3-comb
   ISYM   =      2    0-nonsym 1-usesym 2-fastsym
   LCORR  =      T    Harris-Foulkes like correction to forces

   POTIM  = 0.5000    time-step for ionic-motion
   TEIN   =    0.0    initial temperature
   TEBEG  =    0.0;   TEEND  =   0.0 temperature during run
   SMASS  =  -3.00    Nose mass-parameter (am)
   estimated Nose-frequenzy (Omega)   =  0.10E-29 period in steps =****** mass=  -0.109E-26a.u.
   SCALEE = 1.0000    scale energy and forces
   NPACO  =    256;   APACO  = 16.0  distance and # of slots for P.C.
   PSTRESS=    0.0 pullay stress

  Mass of Ions in am
   POMASS =  58.69 28.09 32.07
  Ionic Valenz
   ZVAL   =  10.00  4.00  6.00
  Atomic Wigner-Seitz radii
   RWIGS  =  -1.00 -1.00 -1.00
  virtual crystal weights 
   VCA    =   1.00  1.00  1.00
   NELECT =      64.0000    total number of electrons
   NUPDOWN=      -1.0000    fix difference up-down

 DOS related values:
   EMIN   =  10.00;   EMAX   =-10.00  energy-range for DOS
   EFERMI =   0.00
   ISMEAR =    -5;   SIGMA  =   0.05  broadening in eV -4-tet -1-fermi 0-gaus

 Electronic relaxation 2 (details)
   IALGO  =     38    algorithm
   LDIAG  =      T    sub-space diagonalisation (order eigenvalues)
   LSUBROT=      F    optimize rotation matrix (better conditioning)
   TURBO    =      0    0=normal 1=particle mesh
   IRESTART =      0    0=no restart 2=restart with 2 vectors
   NREBOOT  =      0    no. of reboots
   NMIN     =      0    reboot dimension
   EREF     =   0.00    reference energy to select bands
   IMIX   =      4    mixing-type and parameters
     AMIX     =   0.40;   BMIX     =  1.00
     AMIX_MAG =   1.60;   BMIX_MAG =  1.00
     AMIN     =   0.01
     WC   =   100.;   INIMIX=   1;  MIXPRE=   1;  MAXMIX= -45

 Intra band minimization:
   WEIMIN = 0.0010     energy-eigenvalue tresh-hold
   EBREAK =  0.52E-06  absolut break condition
   DEPER  =   0.30     relativ break condition  

   TIME   =   0.40     timestep for ELM

  volume/ion in A,a.u.               =      96.88       653.80
  Fermi-wavevector in a.u.,A,eV,Ry     =   0.661787  1.250596  5.958835  0.437962
  Thomas-Fermi vector in A             =   1.734655

 Write flags
   LWAVE        =      F    write WAVECAR
   LDOWNSAMPLE  =      F    k-point downsampling of WAVECAR
   LCHARG       =      T    write CHGCAR
   LVTOT        =      F    write LOCPOT, total local potential
   LVHAR        =      F    write LOCPOT, Hartree potential only
   LELF         =      F    write electronic localiz. function (ELF)
   LORBIT       =     11    0 simple, 1 ext, 2 COOP (PROOUT), +10 PAW based schemes


 Dipole corrections
   LMONO  =      F    monopole corrections only (constant potential shift)
   LDIPOL =      F    correct potential (dipole corrections)
   IDIPOL =      0    1-x, 2-y, 3-z, 4-all directions 
   EPSILON=  1.0000000 bulk dielectric constant

 Exchange correlation treatment:
   GGA     =    BO    GGA type
   LEXCH   =    42    internal setting for exchange type
   VOSKOWN=      0    Vosko Wilk Nusair interpolation
   LHFCALC =     F    Hartree Fock is set to
   LHFONE  =     F    Hartree Fock one center treatment
   AEXX    =    0.0000 exact exchange contribution

 vdW DFT:
   LUSE_VDW   =     T    switch on vdW DFT
   Zab_VDW    =-.8491    correlation parameter
   PARAM1     =0.1833
   PARAM2     =0.2200
   PARAM3     =0.0000
   -- rVV10 --
   BPARAM     = 6.3000
   CPARAM     = 0.0093

 Linear response parameters
   LEPSILON=     F    determine dielectric tensor
   LRPA    =     F    only Hartree local field effects (RPA)
   LNABLA  =     F    use nabla operator in PAW spheres
   LVEL    =     F    velocity operator in full k-point grid
   LINTERFAST=   F  fast interpolation
   KINTER  =     0    interpolate to denser k-point grid
   CSHIFT  =0.1000    complex shift for real part using Kramers Kronig
   OMEGAMAX=  -1.0    maximum frequency
   DEG_THRESHOLD= 0.2000000E-02 threshold for treating states as degnerate
   RTIME   =   -0.100 relaxation time in fs
  (WPLASMAI=    0.000 imaginary part of plasma frequency in eV, 0.658/RTIME)
   DFIELD  = 0.0000000 0.0000000 0.0000000 field for delta impulse in time

 Orbital magnetization related:
   ORBITALMAG=     F  switch on orbital magnetization
   LCHIMAG   =     F  perturbation theory with respect to B field
   DQ        =  0.001000  dq finite difference perturbation B field
   LLRAUG    =     F  two centre corrections for induced B field



--------------------------------------------------------------------------------------------------------


 conjugate gradient relaxation of ions
   using selective dynamics as specified on POSCAR
 charge density and potential will be updated during run
 spin polarized calculation
 Variant of blocked Davidson
 Davidson routine will perform the subspace rotation
 perform sub-space diagonalisation
    after iterative eigenvector-optimisation
 modified Broyden-mixing scheme, WC =      100.0
 initial mixing is a Kerker type mixing with AMIX =  0.4000 and BMIX =      1.0000
 Hartree-type preconditioning will be used
 using additional bands           16
 real space projection scheme for non local part
 use partial core corrections
 calculate Harris-corrections to forces   (improved forces if not selfconsistent)
 use gradient corrections 
 use of overlap-Matrix (Vanderbilt PP)
 Fermi weights with tetrahedron method with Bloechl corrections


--------------------------------------------------------------------------------------------------------


  energy-cutoff  :      520.00
  volume of cell :      968.84
      direct lattice vectors                 reciprocal lattice vectors
     6.907777000 -0.000000000  0.000000000     0.144764372 -0.083579742  0.000000000
     3.453888000  5.982310000  0.000000000     0.000000000  0.167159509 -0.000000000
     0.000000000  0.000000000 23.444588000    -0.000000000  0.000000000  0.042653767

  length of vectors
     6.907777000  6.907776433 23.444588000     0.167159495  0.167159509  0.042653767



 k-points in units of 2pi/SCALE and weight: Kpoints from vasprun.xml                
   0.00000000  0.00000000  0.00000000       0.040
   0.02895287 -0.01671595  0.00000000       0.240
   0.05790575 -0.03343190  0.00000000       0.240
   0.05790575  0.00000000  0.00000000       0.240
  -0.05790575  0.06686380  0.00000000       0.240

 k-points in reciprocal lattice and weights: Kpoints from vasprun.xml                
   0.00000000  0.00000000  0.00000000       0.040
   0.20000000  0.00000000  0.00000000       0.240
   0.40000000  0.00000000  0.00000000       0.240
   0.40000000  0.20000000  0.00000000       0.240
  -0.40000000  0.20000000  0.00000000       0.240

 position of ions in fractional coordinates (direct lattice) 
   0.33333300  0.33333300  0.49992500
   0.66666700  0.66666700  0.50007500
   0.00000000  0.00000000  0.44821600
   0.00000000  0.00000000  0.55178400
   0.62635700  0.00042000  0.57375200
   0.00042000  0.37322400  0.57375200
   0.37322400  0.62635700  0.57375200
   0.37364300  0.99958000  0.42624800
   0.99958000  0.62677600  0.42624800
   0.62677600  0.37364300  0.42624800

 position of ions in cartesian coordinates  (Angst):
   3.45388488  1.99410134 11.72053566
   6.90778012  3.98820866 11.72405234
   0.00000000  0.00000000 10.50823946
   0.00000000  0.00000000 12.93634854
   4.32818511  0.00251257 13.45137925
   1.29197516  2.23274167 13.45137925
   4.74151509  3.74706174 13.45137925
   6.03347989  5.97979743  9.99320875
   9.06968984  3.74956833  9.99320875
   5.62014991  2.23524826  9.99320875



--------------------------------------------------------------------------------------------------------


 k-point  1 :   0.0000 0.0000 0.0000  plane waves:   26073
 k-point  2 :   0.2000 0.0000 0.0000  plane waves:   26070
 k-point  3 :   0.4000 0.0000 0.0000  plane waves:   26086
 k-point  4 :   0.4000 0.2000 0.0000  plane waves:   26085
 k-point  5 :  -0.4000 0.2000 0.0000  plane waves:   26115

 maximum and minimum number of plane-waves per node :     26115    26070

 maximum number of plane-waves:     26115
 maximum index in each direction: 
   IXMAX=   13   IYMAX=   12   IZMAX=   43
   IXMIN=  -13   IYMIN=  -13   IZMIN=  -43


 serial   3D FFT for wavefunctions
 parallel 3D FFT for charge:
    minimum data exchange during FFTs selected (reduces bandwidth)


 total amount of memory used by VASP MPI-rank0   126065. kBytes
=======================================================================

   base      :      30000. kBytes
   nonlr-proj:       5770. kBytes
   fftplans  :      11247. kBytes
   grid      :      66142. kBytes
   one-center:        311. kBytes
   wavefun   :      12595. kBytes

     INWAV:  cpu time    0.0000: real time    0.0004
 Broyden mixing: mesh for mixing (old mesh)
   NGX = 25   NGY = 25   NGZ = 87
  (NGX  =108   NGY  =108   NGZ  =360)
  gives a total of  54375 points

 initial charge density was supplied:
 charge density of overlapping atoms calculated
 number of electron      64.0000000 magnetization       7.3200000
 keeping initial charge density in first step


--------------------------------------------------------------------------------------------------------


 Maximum index for non-local projection operator         7247
 Maximum index for augmentation-charges         1288 (set IRDMAX)


--------------------------------------------------------------------------------------------------------


 First call to EWALD:  gamma=   0.179
 Maximum number of real-space cells 4x 4x 1
 Maximum number of reciprocal cells 2x 2x 6

    FEWALD:  cpu time    0.0000: real time    0.0015


--------------------------------------- Iteration      1(   1)  ---------------------------------------


vdW kernel read from vdw_kernel.bindat
  0.0000  0.2424  0.5071  0.7962  1.1119  1.4567  1.8333  2.2446  2.6937  3.1842
  3.7199  4.3049  4.9438  5.6415  6.4036  7.2358  8.1446  9.1372 10.2212 11.4050
 12.6979 14.1099 15.6519 17.3360 19.1751 21.1837 23.3773 25.7729 28.3892 31.2465
 34.3669 37.7748 41.4965 45.5611 50.0000

    POTLOK:  cpu time   52.3520: real time   53.1894
    SETDIJ:  cpu time    0.0360: real time    0.0340
     EDDAV:  cpu time   22.1640: real time   22.5340
 BZINTS: Fermi energy:  4.478768; 64.000000 electrons
         Band energy: -46.838975;  BLOECHL correction: -0.038666
       DOS:  cpu time    0.0040: real time    0.0050
    --------------------------------------------
      LOOP:  cpu time   74.5560: real time   75.7624

 eigenvalue-minimisations  :   960
 total energy-change (2. order) : 0.4084635E+03  (-0.1968787E+04)
 number of electron      64.0000000 magnetization       7.3200000
 augmentation part       64.0000000 magnetization       7.3200000

 Free energy of the ion-electron system (eV)
  ---------------------------------------------------
  alpha Z        PSCENC =        24.40282534
  Ewald energy   TEWEN  =      8065.03639907
  -Hartree energ DENC   =    -11705.16642855
  -exchange      EXHF   =         0.00000000
  -V(xc)+E(xc)   XCENC  =       107.00575666
  PAW double counting   =      2401.94230808    -2475.68796913
  entropy T*S    EENTRO =         0.00000000
  eigenvalues    EBANDS =       -46.83897487
  atomic energy  EATOM  =      4037.76956432
  Solvation  Ediel_sol  =         0.00000000
  ---------------------------------------------------
  free energy    TOTEN  =       408.46348092 eV

  energy without entropy =      408.46348092  energy(sigma->0) =      408.46348092


--------------------------------------------------------------------------------------------------------




--------------------------------------- Iteration      1(   2)  ---------------------------------------


     EDDAV:  cpu time   31.8080: real time   32.9481
 BZINTS: Fermi energy: -2.221694; 64.000000 electrons
         Band energy:-424.639518;  BLOECHL correction: -0.023710
       DOS:  cpu time    0.0080: real time    0.0052
    --------------------------------------------
      LOOP:  cpu time   31.8160: real time   32.9533

 eigenvalue-minimisations  :  1456
 total energy-change (2. order) :-0.3778005E+03  (-0.3561145E+03)
 number of electron      64.0000000 magnetization       7.3200000
 augmentation part       64.0000000 magnetization       7.3200000

 Free energy of the ion-electron system (eV)
  ---------------------------------------------------
  alpha Z        PSCENC =        24.40282534
  Ewald energy   TEWEN  =      8065.03639907
  -Hartree energ DENC   =    -11705.16642855
  -exchange      EXHF   =         0.00000000
  -V(xc)+E(xc)   XCENC  =       107.00575666
  PAW double counting   =      2401.94230808    -2475.68796913
  entropy T*S    EENTRO =         0.00000000
  eigenvalues    EBANDS =      -424.63951759
  atomic energy  EATOM  =      4037.76956432
  Solvation  Ediel_sol  =         0.00000000
  ---------------------------------------------------
  free energy    TOTEN  =        30.66293819 eV

  energy without entropy =       30.66293819  energy(sigma->0) =       30.66293819


--------------------------------------------------------------------------------------------------------




--------------------------------------- Iteration      1(   3)  ---------------------------------------


     EDDAV:  cpu time   28.7480: real time   28.9362
 BZINTS: Fermi energy: -2.810086; 64.000000 electrons
         Band energy:-496.275315;  BLOECHL correction: -0.008911
       DOS:  cpu time    0.0040: real time    0.0053
    --------------------------------------------
      LOOP:  cpu time   28.7520: real time   28.9415

 eigenvalue-minimisations  :  1264
 total energy-change (2. order) :-0.7163580E+02  (-0.6845229E+02)
 number of electron      64.0000000 magnetization       7.3200000
 augmentation part       64.0000000 magnetization       7.3200000

 Free energy of the ion-electron system (eV)
  ---------------------------------------------------
  alpha Z        PSCENC =        24.40282534
  Ewald energy   TEWEN  =      8065.03639907
  -Hartree energ DENC   =    -11705.16642855
  -exchange      EXHF   =         0.00000000
  -V(xc)+E(xc)   XCENC  =       107.00575666
  PAW double counting   =      2401.94230808    -2475.68796913
  entropy T*S    EENTRO =         0.00000000
  eigenvalues    EBANDS =      -496.27531516
  atomic energy  EATOM  =      4037.76956432
  Solvation  Ediel_sol  =         0.00000000
  ---------------------------------------------------
  free energy    TOTEN  =       -40.97285937 eV

  energy without entropy =      -40.97285937  energy(sigma->0) =      -40.97285937


--------------------------------------------------------------------------------------------------------




--------------------------------------- Iteration      1(   4)  ---------------------------------------


     EDDAV:  cpu time   26.6960: real time   27.0806
 BZINTS: Fermi energy: -2.827522; 64.000000 electrons
         Band energy:-499.139333;  BLOECHL correction: -0.010511
       DOS:  cpu time    0.0040: real time    0.0049
    --------------------------------------------
      LOOP:  cpu time   26.7000: real time   27.0855

 eigenvalue-minimisations  :  1184
 total energy-change (2. order) :-0.2864018E+01  (-0.2848377E+01)
 number of electron      64.0000000 magnetization       7.3200000
 augmentation part       64.0000000 magnetization       7.3200000

 Free energy of the ion-electron system (eV)
  ---------------------------------------------------
  alpha Z        PSCENC =        24.40282534
  Ewald energy   TEWEN  =      8065.03639907
  -Hartree energ DENC   =    -11705.16642855
  -exchange      EXHF   =         0.00000000
  -V(xc)+E(xc)   XCENC  =       107.00575666
  PAW double counting   =      2401.94230808    -2475.68796913
  entropy T*S    EENTRO =         0.00000000
  eigenvalues    EBANDS =      -499.13933322
  atomic energy  EATOM  =      4037.76956432
  Solvation  Ediel_sol  =         0.00000000
  ---------------------------------------------------
  free energy    TOTEN  =       -43.83687744 eV

  energy without entropy =      -43.83687744  energy(sigma->0) =      -43.83687744


--------------------------------------------------------------------------------------------------------




--------------------------------------- Iteration      1(   5)  ---------------------------------------


     EDDAV:  cpu time   30.6600: real time   30.7504
 BZINTS: Fermi energy: -2.828384; 64.000000 electrons
         Band energy:-499.221394;  BLOECHL correction: -0.010463
       DOS:  cpu time    0.0080: real time    0.0076
    CHARGE:  cpu time    2.1120: real time    2.1165
    MIXING:  cpu time    0.0400: real time    0.0399
    --------------------------------------------
      LOOP:  cpu time   32.8200: real time   32.9144

 eigenvalue-minimisations  :  1360
 total energy-change (2. order) :-0.8206093E-01  (-0.8207913E-01)
 number of electron      63.9999996 magnetization       7.4318999
 augmentation part        2.2829846 magnetization       4.6685893

 Broyden mixing:
  rms(total) = 0.44434E+01    rms(broyden)= 0.44434E+01
  rms(prec ) = 0.47196E+01
  weight for this iteration     100.00

 Free energy of the ion-electron system (eV)
  ---------------------------------------------------
  alpha Z        PSCENC =        24.40282534
  Ewald energy   TEWEN  =      8065.03639907
  -Hartree energ DENC   =    -11705.16642855
  -exchange      EXHF   =         0.00000000
  -V(xc)+E(xc)   XCENC  =       107.00575666
  PAW double counting   =      2401.94230808    -2475.68796913
  entropy T*S    EENTRO =         0.00000000
  eigenvalues    EBANDS =      -499.22139415
  atomic energy  EATOM  =      4037.76956432
  Solvation  Ediel_sol  =         0.00000000
  ---------------------------------------------------
  free energy    TOTEN  =       -43.91893837 eV

  energy without entropy =      -43.91893837  energy(sigma->0) =      -43.91893837


--------------------------------------------------------------------------------------------------------




--------------------------------------- Iteration      1(   6)  ---------------------------------------


    POTLOK:  cpu time   52.1480: real time   52.6251
    SETDIJ:  cpu time    0.0400: real time    0.0394
     EDDAV:  cpu time   28.6040: real time   29.6806
 BZINTS: Fermi energy: -4.369813; 64.000000 electrons
         Band energy:-800.897635;  BLOECHL correction: -0.024122
       DOS:  cpu time    0.0040: real time    0.0071
    CHARGE:  cpu time    2.1200: real time    2.1293
    MIXING:  cpu time    0.0480: real time    0.0451
    --------------------------------------------
      LOOP:  cpu time   82.9640: real time   84.5267

 eigenvalue-minimisations  :  1312
 total energy-change (2. order) :-0.5979752E+02  (-0.8075797E+02)
 number of electron      63.9999994 magnetization       7.0898367
 augmentation part       11.2763908 magnetization       7.6030344

 Broyden mixing:
  rms(total) = 0.65317E+01    rms(broyden)= 0.65316E+01
  rms(prec ) = 0.67815E+01
  weight for this iteration     100.00

 eigenvalues of (default mixing * dielectric matrix)
  average eigenvalue GAMMA=   0.3762
  0.3762

 Free energy of the ion-electron system (eV)
  ---------------------------------------------------
  alpha Z        PSCENC =        24.40282534
  Ewald energy   TEWEN  =      8065.03639907
  -Hartree energ DENC   =    -11500.80887473
  -exchange      EXHF   =         0.00000000
  -V(xc)+E(xc)   XCENC  =       108.68002365
  PAW double counting   =      2047.66776857    -2085.56652718
  entropy T*S    EENTRO =         0.00000000
  eigenvalues    EBANDS =      -800.89763511
  atomic energy  EATOM  =      4037.76956432
  Solvation  Ediel_sol  =         0.00000000
  ---------------------------------------------------
  free energy    TOTEN  =      -103.71645607 eV

  energy without entropy =     -103.71645607  energy(sigma->0) =     -103.71645607


--------------------------------------------------------------------------------------------------------




--------------------------------------- Iteration      1(   7)  ---------------------------------------


    POTLOK:  cpu time   52.0240: real time   52.1385
    SETDIJ:  cpu time    0.0360: real time    0.0366
     EDDAV:  cpu time   26.2480: real time   26.3285
 BZINTS: Fermi energy: -4.727506; 64.000000 electrons
         Band energy:-623.616321;  BLOECHL correction: -0.022275
       DOS:  cpu time    0.0080: real time    0.0072
    CHARGE:  cpu time    2.1080: real time    2.1166
    MIXING:  cpu time    0.0400: real time    0.0407
    --------------------------------------------
      LOOP:  cpu time   80.4640: real time   80.6680

 eigenvalue-minimisations  :  1152
 total energy-change (2. order) : 0.5073313E+02  (-0.7199393E+01)
 number of electron      63.9999994 magnetization       6.8983163
 augmentation part       10.3480318 magnetization       5.7083209

 Broyden mixing:
  rms(total) = 0.34492E+01    rms(broyden)= 0.34492E+01
  rms(prec ) = 0.36559E+01
  weight for this iteration     100.00

 eigenvalues of (default mixing * dielectric matrix)
  average eigenvalue GAMMA=   0.4617
  0.4617  0.4617

 Free energy of the ion-electron system (eV)
  ---------------------------------------------------
  alpha Z        PSCENC =        24.40282534
  Ewald energy   TEWEN  =      8065.03639907
  -Hartree energ DENC   =    -11595.45518826
  -exchange      EXHF   =         0.00000000
  -V(xc)+E(xc)   XCENC  =       105.36876921
  PAW double counting   =      2221.08870562    -2287.57807613
  entropy T*S    EENTRO =         0.00000000
  eigenvalues    EBANDS =      -623.61632069
  atomic energy  EATOM  =      4037.76956432
  Solvation  Ediel_sol  =         0.00000000
  ---------------------------------------------------
  free energy    TOTEN  =       -52.98332153 eV

  energy without entropy =      -52.98332153  energy(sigma->0) =      -52.98332153


--------------------------------------------------------------------------------------------------------




--------------------------------------- Iteration      1(   8)  ---------------------------------------


    POTLOK:  cpu time   52.0800: real time   52.2426
    SETDIJ:  cpu time    0.0360: real time    0.0368
     EDDAV:  cpu time   27.2840: real time   27.8739
 BZINTS: Fermi energy: -4.804504; 64.000000 electrons
         Band energy:-557.363025;  BLOECHL correction: -0.010762
       DOS:  cpu time    0.0040: real time    0.0072
    CHARGE:  cpu time    2.0560: real time    2.0675
    MIXING:  cpu time    0.0800: real time    0.0802
    --------------------------------------------
      LOOP:  cpu time   81.5400: real time   82.3082

 eigenvalue-minimisations  :  1216
 total energy-change (2. order) : 0.1393968E+02  (-0.1652464E+01)
 number of electron      63.9999994 magnetization       6.6537624
 augmentation part        9.2316662 magnetization       5.0298496

 Broyden mixing:
  rms(total) = 0.22486E+01    rms(broyden)= 0.22486E+01
  rms(prec ) = 0.23740E+01
  weight for this iteration     100.00

 eigenvalues of (default mixing * dielectric matrix)
  average eigenvalue GAMMA=   0.5691
  0.6297  0.6297  0.4478

 Free energy of the ion-electron system (eV)
  ---------------------------------------------------
  alpha Z        PSCENC =        24.40282534
  Ewald energy   TEWEN  =      8065.03639907
  -Hartree energ DENC   =    -11640.43115710
  -exchange      EXHF   =         0.00000000
  -V(xc)+E(xc)   XCENC  =       106.18977952
  PAW double counting   =      2297.10504123    -2371.75307042
  entropy T*S    EENTRO =         0.00000000
  eigenvalues    EBANDS =      -557.36302502
  atomic energy  EATOM  =      4037.76956432
  Solvation  Ediel_sol  =         0.00000000
  ---------------------------------------------------
  free energy    TOTEN  =       -39.04364306 eV

  energy without entropy =      -39.04364306  energy(sigma->0) =      -39.04364306


--------------------------------------------------------------------------------------------------------




--------------------------------------- Iteration      1(   9)  ---------------------------------------


    POTLOK:  cpu time   51.2640: real time   51.4235
    SETDIJ:  cpu time    0.0360: real time    0.0359
     EDDAV:  cpu time   29.6520: real time   29.8260
 BZINTS: Fermi energy: -4.572962; 64.000000 electrons
         Band energy:-519.771555;  BLOECHL correction: -0.007832
       DOS:  cpu time    0.0040: real time    0.0068
    CHARGE:  cpu time    2.1120: real time    2.1144
    MIXING:  cpu time    0.0440: real time    0.0421
    --------------------------------------------
      LOOP:  cpu time   83.1120: real time   83.4488

 eigenvalue-minimisations  :  1328
 total energy-change (2. order) : 0.3520236E+01  (-0.5781252E+00)
 number of electron      63.9999993 magnetization       6.7265827
 augmentation part        7.0214464 magnetization       6.0810739

 Broyden mixing:
  rms(total) = 0.65370E+00    rms(broyden)= 0.65250E+00
  rms(prec ) = 0.65846E+00
  weight for this iteration     100.00

 eigenvalues of (default mixing * dielectric matrix)
  average eigenvalue GAMMA=   0.4583
  0.6385  0.6385  0.4640  0.0922

 Free energy of the ion-electron system (eV)
  ---------------------------------------------------
  alpha Z        PSCENC =        24.40282534
  Ewald energy   TEWEN  =      8065.03639907
  -Hartree energ DENC   =    -11673.32720922
  -exchange      EXHF   =         0.00000000
  -V(xc)+E(xc)   XCENC  =       106.78789296
  PAW double counting   =      2356.19570469    -2432.61702927
  entropy T*S    EENTRO =         0.00000000
  eigenvalues    EBANDS =      -519.77155462
  atomic energy  EATOM  =      4037.76956432
  Solvation  Ediel_sol  =         0.00000000
  ---------------------------------------------------
  free energy    TOTEN  =       -35.52340674 eV

  energy without entropy =      -35.52340674  energy(sigma->0) =      -35.52340674


--------------------------------------------------------------------------------------------------------




--------------------------------------- Iteration      1(  10)  ---------------------------------------


    POTLOK:  cpu time   51.1400: real time   51.2132
    SETDIJ:  cpu time    0.0360: real time    0.0357
     EDDAV:  cpu time   26.3840: real time   26.4687
 BZINTS: Fermi energy: -4.385036; 64.000000 electrons
         Band energy:-515.577831;  BLOECHL correction: -0.014161
       DOS:  cpu time    0.0040: real time    0.0052
    CHARGE:  cpu time    2.0880: real time    2.0883
    MIXING:  cpu time    0.0440: real time    0.0423
    --------------------------------------------
      LOOP:  cpu time   79.6960: real time   79.8534

 eigenvalue-minimisations  :  1168
 total energy-change (2. order) :-0.2898620E+00  (-0.2307616E+00)
 number of electron      63.9999994 magnetization       6.7360721
 augmentation part        6.1064945 magnetization       4.7340914

 Broyden mixing:
  rms(total) = 0.92801E+00    rms(broyden)= 0.92742E+00
  rms(prec ) = 0.97942E+00
  weight for this iteration     100.00

 eigenvalues of (default mixing * dielectric matrix)
  average eigenvalue GAMMA=   0.4016
  0.6324  0.6324  0.4659  0.1691  0.1081

 Free energy of the ion-electron system (eV)
  ---------------------------------------------------
  alpha Z        PSCENC =        24.40282534
  Ewald energy   TEWEN  =      8065.03639907
  -Hartree energ DENC   =    -11677.58103944
  -exchange      EXHF   =         0.00000000
  -V(xc)+E(xc)   XCENC  =       106.95397309
  PAW double counting   =      2363.71964116    -2440.53680118
  entropy T*S    EENTRO =         0.00000000
  eigenvalues    EBANDS =      -515.57783110
  atomic energy  EATOM  =      4037.76956432
  Solvation  Ediel_sol  =         0.00000000
  ---------------------------------------------------
  free energy    TOTEN  =       -35.81326875 eV

  energy without entropy =      -35.81326875  energy(sigma->0) =      -35.81326875


--------------------------------------------------------------------------------------------------------




--------------------------------------- Iteration      1(  11)  ---------------------------------------


    POTLOK:  cpu time   50.8160: real time   51.1606
    SETDIJ:  cpu time    0.0360: real time    0.0370
     EDDAV:  cpu time   25.6440: real time   25.8103
 BZINTS: Fermi energy: -4.510917; 64.003514 electrons
         Band energy:-518.059745;  BLOECHL correction: -0.010267
       DOS:  cpu time    0.0040: real time    0.0096
    CHARGE:  cpu time    2.1120: real time    2.1110
    MIXING:  cpu time    0.0400: real time    0.0445
    --------------------------------------------
      LOOP:  cpu time   78.6520: real time   79.1729

 eigenvalue-minimisations  :  1136
 total energy-change (2. order) : 0.1204872E+00  (-0.3576734E-01)
 number of electron      64.0035134 magnetization       6.8070949
 augmentation part        6.4586133 magnetization       5.1054085

 Broyden mixing:
  rms(total) = 0.59352E+00    rms(broyden)= 0.59351E+00
  rms(prec ) = 0.62685E+00
  weight for this iteration     100.00

 eigenvalues of (default mixing * dielectric matrix)
  average eigenvalue GAMMA=   0.4248
  0.6313  0.6313  0.3446  0.4507  0.2455  0.2455

 Free energy of the ion-electron system (eV)
  ---------------------------------------------------
  alpha Z        PSCENC =        24.40282534
  Ewald energy   TEWEN  =      8065.03639907
  -Hartree energ DENC   =    -11675.23529000
  -exchange      EXHF   =         0.00000000
  -V(xc)+E(xc)   XCENC  =       106.92224647
  PAW double counting   =      2359.60784427    -2436.13662640
  entropy T*S    EENTRO =         0.00000000
  eigenvalues    EBANDS =      -518.05974466
  atomic energy  EATOM  =      4037.76956432
  Solvation  Ediel_sol  =         0.00000000
  ---------------------------------------------------
  free energy    TOTEN  =       -35.69278159 eV

  energy without entropy =      -35.69278159  energy(sigma->0) =      -35.69278159


--------------------------------------------------------------------------------------------------------




--------------------------------------- Iteration      1(  12)  ---------------------------------------


    POTLOK:  cpu time   51.0480: real time   51.2532
    SETDIJ:  cpu time    0.0360: real time    0.0360
     EDDAV:  cpu time   32.2320: real time   32.3402
 BZINTS: Fermi energy: -4.526151; 64.000000 electrons
         Band energy:-517.672807;  BLOECHL correction: -0.010122
       DOS:  cpu time    0.0040: real time    0.0073
    CHARGE:  cpu time    2.1160: real time    2.1166
    MIXING:  cpu time    0.0600: real time    0.0635
    --------------------------------------------
      LOOP:  cpu time   85.4960: real time   85.8167

 eigenvalue-minimisations  :  1456
 total energy-change (2. order) : 0.7238808E-01  (-0.7826733E-02)
 number of electron      63.9999994 magnetization       7.2257838
 augmentation part        6.5774651 magnetization       5.4979388

 Broyden mixing:
  rms(total) = 0.51303E+00    rms(broyden)= 0.51302E+00
  rms(prec ) = 0.53845E+00
  weight for this iteration     100.00

 eigenvalues of (default mixing * dielectric matrix)
  average eigenvalue GAMMA=   0.6331
  0.7975  0.7072  0.7072  0.6414  0.6414  0.5926  0.3440

 Free energy of the ion-electron system (eV)
  ---------------------------------------------------
  alpha Z        PSCENC =        24.40282534
  Ewald energy   TEWEN  =      8065.03639907
  -Hartree energ DENC   =    -11675.51401086
  -exchange      EXHF   =         0.00000000
  -V(xc)+E(xc)   XCENC  =       107.02221960
  PAW double counting   =      2359.13692757    -2435.80151178
  entropy T*S    EENTRO =         0.00000000
  eigenvalues    EBANDS =      -517.67280676
  atomic energy  EATOM  =      4037.76956432
  Solvation  Ediel_sol  =         0.00000000
  ---------------------------------------------------
  free energy    TOTEN  =       -35.62039351 eV

  energy without entropy =      -35.62039351  energy(sigma->0) =      -35.62039351


--------------------------------------------------------------------------------------------------------




--------------------------------------- Iteration      1(  13)  ---------------------------------------


    POTLOK:  cpu time   51.0560: real time   51.2975
    SETDIJ:  cpu time    0.0360: real time    0.0363
     EDDAV:  cpu time   27.9440: real time   28.0620
 BZINTS: Fermi energy: -4.347139; 64.000000 electrons
         Band energy:-514.815788;  BLOECHL correction: -0.001503
       DOS:  cpu time    0.0040: real time    0.0063
    CHARGE:  cpu time    2.1240: real time    2.1411
    MIXING:  cpu time    0.0480: real time    0.0449
    --------------------------------------------
      LOOP:  cpu time   81.2120: real time   81.5880

 eigenvalue-minimisations  :  1248
 total energy-change (2. order) : 0.1821032E+00  (-0.5124624E-01)
 number of electron      63.9999995 magnetization       7.3380009
 augmentation part        6.0699470 magnetization       4.4925459

 Broyden mixing:
  rms(total) = 0.82073E+00    rms(broyden)= 0.81939E+00
  rms(prec ) = 0.87940E+00
  weight for this iteration     100.00

 eigenvalues of (default mixing * dielectric matrix)
  average eigenvalue GAMMA=   0.5952
  0.8469  0.7094  0.7094  0.6822  0.6822  0.5307  0.3005  0.3005

 Free energy of the ion-electron system (eV)
  ---------------------------------------------------
  alpha Z        PSCENC =        24.40282534
  Ewald energy   TEWEN  =      8065.03639907
  -Hartree energ DENC   =    -11678.09517114
  -exchange      EXHF   =         0.00000000
  -V(xc)+E(xc)   XCENC  =       107.64039835
  PAW double counting   =      2358.93798617    -2436.31450461
  entropy T*S    EENTRO =         0.00000000
  eigenvalues    EBANDS =      -514.81578782
  atomic energy  EATOM  =      4037.76956432
  Solvation  Ediel_sol  =         0.00000000
  ---------------------------------------------------
  free energy    TOTEN  =       -35.43829033 eV

  energy without entropy =      -35.43829033  energy(sigma->0) =      -35.43829033


--------------------------------------------------------------------------------------------------------




--------------------------------------- Iteration      1(  14)  ---------------------------------------


    POTLOK:  cpu time   50.7080: real time   51.0025
    SETDIJ:  cpu time    0.0360: real time    0.0374
     EDDAV:  cpu time   26.5960: real time   26.8287
 BZINTS: Fermi energy: -4.319700; 64.000000 electrons
         Band energy:-514.607647;  BLOECHL correction: -0.000158
       DOS:  cpu time    0.0080: real time    0.0068
    CHARGE:  cpu time    2.1120: real time    2.1133
    MIXING:  cpu time    0.0440: real time    0.0473
    --------------------------------------------
      LOOP:  cpu time   79.5040: real time   80.0360

 eigenvalue-minimisations  :  1184
 total energy-change (2. order) :-0.8775684E-01  (-0.1059673E-01)
 number of electron      63.9999995 magnetization       7.9249229
 augmentation part        6.0306098 magnetization       5.0856889

 Broyden mixing:
  rms(total) = 0.84160E+00    rms(broyden)= 0.84152E+00
  rms(prec ) = 0.90380E+00
  weight for this iteration     100.00

 eigenvalues of (default mixing * dielectric matrix)
  average eigenvalue GAMMA=   0.7321
  0.9960  1.1101  1.1101  0.6920  0.6920  0.6079  0.5111  0.5111  0.3584

 Free energy of the ion-electron system (eV)
  ---------------------------------------------------
  alpha Z        PSCENC =        24.40282534
  Ewald energy   TEWEN  =      8065.03639907
  -Hartree energ DENC   =    -11678.04186903
  -exchange      EXHF   =         0.00000000
  -V(xc)+E(xc)   XCENC  =       107.69573542
  PAW double counting   =      2357.67170779    -2435.45276321
  entropy T*S    EENTRO =         0.00000000
  eigenvalues    EBANDS =      -514.60764686
  atomic energy  EATOM  =      4037.76956432
  Solvation  Ediel_sol  =         0.00000000
  ---------------------------------------------------
  free energy    TOTEN  =       -35.52604717 eV

  energy without entropy =      -35.52604717  energy(sigma->0) =      -35.52604717


--------------------------------------------------------------------------------------------------------




--------------------------------------- Iteration      1(  15)  ---------------------------------------


    POTLOK:  cpu time   50.8840: real time   51.1727
    SETDIJ:  cpu time    0.0360: real time    0.0367
     EDDAV:  cpu time   27.3200: real time   27.4517
 BZINTS: Fermi energy: -4.445663; 64.000000 electrons
         Band energy:-523.902101;  BLOECHL correction:  0.000000
       DOS:  cpu time    0.0040: real time    0.0041
    CHARGE:  cpu time    2.0760: real time    2.0802
    MIXING:  cpu time    0.0760: real time    0.0739
    --------------------------------------------
      LOOP:  cpu time   80.3960: real time   80.8193

 eigenvalue-minimisations  :  1216
 total energy-change (2. order) : 0.7692371E+00  (-0.7970436E-01)
 number of electron      63.9999995 magnetization       8.5512229
 augmentation part        6.6413041 magnetization       5.2505799

 Broyden mixing:
  rms(total) = 0.59025E+00    rms(broyden)= 0.59015E+00
  rms(prec ) = 0.60194E+00
  weight for this iteration     100.00

 eigenvalues of (default mixing * dielectric matrix)
  average eigenvalue GAMMA=   0.8163
  1.0667  1.5140  1.5140  0.7143  0.7143  0.5792  0.5792  0.6708  0.3616  0.4486

 Free energy of the ion-electron system (eV)
  ---------------------------------------------------
  alpha Z        PSCENC =        24.40282534
  Ewald energy   TEWEN  =      8065.03639907
  -Hartree energ DENC   =    -11667.48694088
  -exchange      EXHF   =         0.00000000
  -V(xc)+E(xc)   XCENC  =       108.12937938
  PAW double counting   =      2335.96978513    -2414.67572097
  entropy T*S    EENTRO =         0.00000000
  eigenvalues    EBANDS =      -523.90210150
  atomic energy  EATOM  =      4037.76956432
  Solvation  Ediel_sol  =         0.00000000
  ---------------------------------------------------
  free energy    TOTEN  =       -34.75681011 eV

  energy without entropy =      -34.75681011  energy(sigma->0) =      -34.75681011


--------------------------------------------------------------------------------------------------------




--------------------------------------- Iteration      1(  16)  ---------------------------------------


    POTLOK:  cpu time   51.1080: real time   51.2563
    SETDIJ:  cpu time    0.0400: real time    0.0369
     EDDAV:  cpu time   28.9280: real time   29.0286
 BZINTS: Fermi energy: -4.593796; 64.000000 electrons
         Band energy:-532.423737;  BLOECHL correction: -0.016023
       DOS:  cpu time    0.0040: real time    0.0057
    CHARGE:  cpu time    2.1480: real time    2.1641
    MIXING:  cpu time    0.0520: real time    0.0511
    --------------------------------------------
      LOOP:  cpu time   82.2800: real time   82.5427

 eigenvalue-minimisations  :  1296
 total energy-change (2. order) : 0.3537338E+00  (-0.2271169E+00)
 number of electron      63.9999995 magnetization       8.5783175
 augmentation part        7.9682367 magnetization       4.8614112

 Broyden mixing:
  rms(total) = 0.18317E+01    rms(broyden)= 0.18313E+01
  rms(prec ) = 0.18659E+01
  weight for this iteration     100.00

 eigenvalues of (default mixing * dielectric matrix)
  average eigenvalue GAMMA=   0.7611
  1.0749  1.5535  1.5535  0.7158  0.7158  0.6709  0.5758  0.5758  0.4165  0.3556
  0.1636

 Free energy of the ion-electron system (eV)
  ---------------------------------------------------
  alpha Z        PSCENC =        24.40282534
  Ewald energy   TEWEN  =      8065.03639907
  -Hartree energ DENC   =    -11658.81520535
  -exchange      EXHF   =         0.00000000
  -V(xc)+E(xc)   XCENC  =       108.71034074
  PAW double counting   =      2317.89599905    -2396.97926276
  entropy T*S    EENTRO =         0.00000000
  eigenvalues    EBANDS =      -532.42373673
  atomic energy  EATOM  =      4037.76956432
  Solvation  Ediel_sol  =         0.00000000
  ---------------------------------------------------
  free energy    TOTEN  =       -34.40307633 eV

  energy without entropy =      -34.40307633  energy(sigma->0) =      -34.40307633


--------------------------------------------------------------------------------------------------------




--------------------------------------- Iteration      1(  17)  ---------------------------------------


    POTLOK:  cpu time   50.9120: real time   50.9848
    SETDIJ:  cpu time    0.0480: real time    0.0466
     EDDAV:  cpu time   24.8520: real time   25.0537
 BZINTS: Fermi energy: -4.603732; 64.000000 electrons
         Band energy:-532.275098;  BLOECHL correction: -0.014050
       DOS:  cpu time    0.0040: real time    0.0072
    CHARGE:  cpu time    2.0800: real time    2.0802
    MIXING:  cpu time    0.0480: real time    0.0485
    --------------------------------------------
      LOOP:  cpu time   77.9440: real time   78.2211

 eigenvalue-minimisations  :  1104
 total energy-change (2. order) :-0.7337541E-01  (-0.3133353E-01)
 number of electron      63.9999995 magnetization       8.6734333
 augmentation part        8.1143092 magnetization       4.9406973

 Broyden mixing:
  rms(total) = 0.19725E+01    rms(broyden)= 0.19724E+01
  rms(prec ) = 0.20131E+01
  weight for this iteration     100.00

 eigenvalues of (default mixing * dielectric matrix)
  average eigenvalue GAMMA=   0.7783
  1.6175  1.6175  1.0626  0.7449  0.7449  0.6816  0.5923  0.5923  0.3634  0.4516
  0.4516  0.4190

 Free energy of the ion-electron system (eV)
  ---------------------------------------------------
  alpha Z        PSCENC =        24.40282534
  Ewald energy   TEWEN  =      8065.03639907
  -Hartree energ DENC   =    -11659.09719882
  -exchange      EXHF   =         0.00000000
  -V(xc)+E(xc)   XCENC  =       108.73119916
  PAW double counting   =      2318.51857111    -2397.56271378
  entropy T*S    EENTRO =         0.00000000
  eigenvalues    EBANDS =      -532.27509814
  atomic energy  EATOM  =      4037.76956432
  Solvation  Ediel_sol  =         0.00000000
  ---------------------------------------------------
  free energy    TOTEN  =       -34.47645174 eV

  energy without entropy =      -34.47645174  energy(sigma->0) =      -34.47645174


--------------------------------------------------------------------------------------------------------




--------------------------------------- Iteration      1(  18)  ---------------------------------------


    POTLOK:  cpu time   50.8280: real time   51.0828
    SETDIJ:  cpu time    0.0360: real time    0.0361
     EDDAV:  cpu time   26.1360: real time   26.4418
 BZINTS: Fermi energy: -4.558705; 64.000000 electrons
         Band energy:-532.685938;  BLOECHL correction: -0.017545
       DOS:  cpu time    0.0040: real time    0.0077
    CHARGE:  cpu time    2.0160: real time    2.1052
    MIXING:  cpu time    0.0440: real time    0.0500
    --------------------------------------------
      LOOP:  cpu time   79.0640: real time   79.7235

 eigenvalue-minimisations  :  1168
 total energy-change (2. order) : 0.4845085E+00  (-0.1207849E-01)
 number of electron      63.9999995 magnetization       8.5860483
 augmentation part        8.1362928 magnetization       4.8449056

 Broyden mixing:
  rms(total) = 0.20302E+01    rms(broyden)= 0.20302E+01
  rms(prec ) = 0.20731E+01
  weight for this iteration     100.00

 eigenvalues of (default mixing * dielectric matrix)
  average eigenvalue GAMMA=   0.7692
  1.5819  1.5819  1.0867  0.5369  0.5369  0.7359  0.7359  0.6803  0.5963  0.5963
  0.4840  0.4840  0.3631

 Free energy of the ion-electron system (eV)
  ---------------------------------------------------
  alpha Z        PSCENC =        24.40282534
  Ewald energy   TEWEN  =      8065.03639907
  -Hartree energ DENC   =    -11657.61255371
  -exchange      EXHF   =         0.00000000
  -V(xc)+E(xc)   XCENC  =       109.12431359
  PAW double counting   =      2311.54644412    -2391.57299810
  entropy T*S    EENTRO =         0.00000000
  eigenvalues    EBANDS =      -532.68593790
  atomic energy  EATOM  =      4037.76956432
  Solvation  Ediel_sol  =         0.00000000
  ---------------------------------------------------
  free energy    TOTEN  =       -33.99194327 eV

  energy without entropy =      -33.99194327  energy(sigma->0) =      -33.99194327


--------------------------------------------------------------------------------------------------------




--------------------------------------- Iteration      1(  19)  ---------------------------------------


    POTLOK:  cpu time   50.4480: real time   51.2383
    SETDIJ:  cpu time    0.0360: real time    0.0369
     EDDAV:  cpu time   24.3360: real time   24.9811
 BZINTS: Fermi energy: -4.598365; 64.000000 electrons
         Band energy:-535.646452;  BLOECHL correction: -0.014436
       DOS:  cpu time    0.0040: real time    0.0071
    CHARGE:  cpu time    2.1160: real time    2.1270
    MIXING:  cpu time    0.0520: real time    0.0503
    --------------------------------------------
      LOOP:  cpu time   76.9920: real time   78.4407

 eigenvalue-minimisations  :  1104
 total energy-change (2. order) :-0.5303807E+00  (-0.6750683E-01)
 number of electron      63.9999995 magnetization       8.4325958
 augmentation part        8.6616203 magnetization       4.9317512

 Broyden mixing:
  rms(total) = 0.25621E+01    rms(broyden)= 0.25621E+01
  rms(prec ) = 0.26297E+01
  weight for this iteration     100.00

 eigenvalues of (default mixing * dielectric matrix)
  average eigenvalue GAMMA=   0.7710
  1.1021  1.6245  1.6245  0.7303  0.7303  0.7404  0.7404  0.6005  0.6005  0.6646
  0.4684  0.4684  0.3629  0.3357

 Free energy of the ion-electron system (eV)
  ---------------------------------------------------
  alpha Z        PSCENC =        24.40282534
  Ewald energy   TEWEN  =      8065.03639907
  -Hartree energ DENC   =    -11655.07828647
  -exchange      EXHF   =         0.00000000
  -V(xc)+E(xc)   XCENC  =       109.10672046
  PAW double counting   =      2305.43899860    -2385.55209378
  entropy T*S    EENTRO =         0.00000000
  eigenvalues    EBANDS =      -535.64645154
  atomic energy  EATOM  =      4037.76956432
  Solvation  Ediel_sol  =         0.00000000
  ---------------------------------------------------
  free energy    TOTEN  =       -34.52232400 eV

  energy without entropy =      -34.52232400  energy(sigma->0) =      -34.52232400


--------------------------------------------------------------------------------------------------------




--------------------------------------- Iteration      1(  20)  ---------------------------------------


    POTLOK:  cpu time   50.5920: real time   51.1062
    SETDIJ:  cpu time    0.0360: real time    0.0360
     EDDAV:  cpu time   24.9960: real time   25.1005
 BZINTS: Fermi energy: -4.585204; 64.000000 electrons
         Band energy:-535.886981;  BLOECHL correction: -0.015947
       DOS:  cpu time    0.0080: real time    0.0059
    CHARGE:  cpu time    2.1000: real time    2.1016
    MIXING:  cpu time    0.0520: real time    0.0535
    --------------------------------------------
      LOOP:  cpu time   77.7840: real time   78.4037

 eigenvalue-minimisations  :  1104
 total energy-change (2. order) : 0.2816034E+00  (-0.8978630E-02)
 number of electron      63.9999995 magnetization       7.6157959
 augmentation part        8.6655146 magnetization       4.1501628

 Broyden mixing:
  rms(total) = 0.25293E+01    rms(broyden)= 0.25293E+01
  rms(prec ) = 0.25979E+01
  weight for this iteration     100.00

 eigenvalues of (default mixing * dielectric matrix)
  average eigenvalue GAMMA=   0.8207
  1.2149  1.2149  1.5433  1.5433  0.7993  0.7993  0.7347  0.7347  0.6116  0.6116
  0.6547  0.5255  0.5255  0.3631  0.4345

 Free energy of the ion-electron system (eV)
  ---------------------------------------------------
  alpha Z        PSCENC =        24.40282534
  Ewald energy   TEWEN  =      8065.03639907
  -Hartree energ DENC   =    -11654.63336975
  -exchange      EXHF   =         0.00000000
  -V(xc)+E(xc)   XCENC  =       109.09235731
  PAW double counting   =      2304.38353403    -2384.40505014
  entropy T*S    EENTRO =         0.00000000
  eigenvalues    EBANDS =      -535.88698078
  atomic energy  EATOM  =      4037.76956432
  Solvation  Ediel_sol  =         0.00000000
  ---------------------------------------------------
  free energy    TOTEN  =       -34.24072061 eV

  energy without entropy =      -34.24072061  energy(sigma->0) =      -34.24072061


--------------------------------------------------------------------------------------------------------




--------------------------------------- Iteration      1(  21)  ---------------------------------------


    POTLOK:  cpu time   50.9800: real time   51.2038
    SETDIJ:  cpu time    0.0360: real time    0.0367
     EDDAV:  cpu time   29.7600: real time   30.1687
 BZINTS: Fermi energy: -4.734509; 64.000000 electrons
         Band energy:-570.235723;  BLOECHL correction: -0.014477
       DOS:  cpu time    0.0080: real time    0.0054
    CHARGE:  cpu time    2.0840: real time    2.0950
    MIXING:  cpu time    0.0520: real time    0.0538
    --------------------------------------------
      LOOP:  cpu time   82.9200: real time   83.5633

 eigenvalue-minimisations  :  1360
 total energy-change (2. order) :-0.3689520E+02  (-0.1193305E-01)
 number of electron      63.9999995 magnetization       7.6157533
 augmentation part        8.3416925 magnetization       7.3770209

 Broyden mixing:
  rms(total) = 0.38985E+01    rms(broyden)= 0.38825E+01
  rms(prec ) = 0.40061E+01
  weight for this iteration     100.00

 eigenvalues of (default mixing * dielectric matrix)
  average eigenvalue GAMMA=   0.7695
  1.2150  1.2150  1.5433  1.5433  0.7994  0.7994  0.7347  0.7347  0.6116  0.6116
  0.6547  0.5255  0.5255  0.3631  0.4345  0.0003

 Free energy of the ion-electron system (eV)
  ---------------------------------------------------
  alpha Z        PSCENC =        24.40282534
  Ewald energy   TEWEN  =      8065.03639907
  -Hartree energ DENC   =    -11657.09449306
  -exchange      EXHF   =         0.00000000
  -V(xc)+E(xc)   XCENC  =       108.41897012
  PAW double counting   =      2310.40694981    -2389.84041044
  entropy T*S    EENTRO =         0.00000000
  eigenvalues    EBANDS =      -570.23572325
  atomic energy  EATOM  =      4037.76956432
  Solvation  Ediel_sol  =         0.00000000
  ---------------------------------------------------
  free energy    TOTEN  =       -71.13591810 eV

  energy without entropy =      -71.13591810  energy(sigma->0) =      -71.13591810


--------------------------------------------------------------------------------------------------------




--------------------------------------- Iteration      1(  22)  ---------------------------------------


    POTLOK:  cpu time   50.8880: real time   51.0975
    SETDIJ:  cpu time    0.0360: real time    0.0360
     EDDAV:  cpu time   29.4400: real time   29.6949
 BZINTS: Fermi energy: -4.732445; 64.000000 electrons
         Band energy:-708.671698;  BLOECHL correction: -0.014634
       DOS:  cpu time    0.0040: real time    0.0054
    CHARGE:  cpu time    2.0240: real time    2.1452
    MIXING:  cpu time    0.0520: real time    0.0573
    --------------------------------------------
      LOOP:  cpu time   82.4440: real time   83.0361

 eigenvalue-minimisations  :  1328
 total energy-change (2. order) :-0.1379776E+03  (-0.1350767E+03)
 number of electron      63.9999995 magnetization       7.6153048
 augmentation part        8.3304603 magnetization       7.3339485

 Broyden mixing:
  rms(total) = 0.31026E+01    rms(broyden)= 0.30739E+01
  rms(prec ) = 0.31906E+01
  weight for this iteration     100.00

 eigenvalues of (default mixing * dielectric matrix)
  average eigenvalue GAMMA=   0.7243
  1.2154  1.2154  1.5432  1.5432  0.7996  0.7996  0.7347  0.7347  0.6116  0.6116
  0.6547  0.5255  0.5255  0.3631  0.4344  0.0010  0.0000

 Free energy of the ion-electron system (eV)
  ---------------------------------------------------
  alpha Z        PSCENC =        24.40282534
  Ewald energy   TEWEN  =      8065.03639907
  -Hartree energ DENC   =    -11657.11374774
  -exchange      EXHF   =         0.00000000
  -V(xc)+E(xc)   XCENC  =       108.90775331
  PAW double counting   =      2310.41164510    -2389.85623925
  entropy T*S    EENTRO =         0.00000000
  eigenvalues    EBANDS =      -708.67169757
  atomic energy  EATOM  =      4037.76956432
  Solvation  Ediel_sol  =         0.00000000
  ---------------------------------------------------
  free energy    TOTEN  =      -209.11349742 eV

  energy without entropy =     -209.11349742  energy(sigma->0) =     -209.11349742


--------------------------------------------------------------------------------------------------------




--------------------------------------- Iteration      1(  23)  ---------------------------------------


    POTLOK:  cpu time   50.4240: real time   51.0982
    SETDIJ:  cpu time    0.0360: real time    0.0365
     EDDAV:  cpu time   25.3720: real time   25.7775
 BZINTS: Fermi energy: -4.680956; 64.000000 electrons
         Band energy:-534.371087;  BLOECHL correction: -0.015866
       DOS:  cpu time    0.0080: real time    0.0056
    CHARGE:  cpu time    2.1000: real time    2.1067
    MIXING:  cpu time    0.0560: real time    0.0564
    --------------------------------------------
      LOOP:  cpu time   77.9960: real time   79.0809

 eigenvalue-minimisations  :  1136
 total energy-change (2. order) : 0.1744720E+03  (-0.1515934E+03)
 number of electron      63.9999995 magnetization       7.5983994
 augmentation part        8.4887492 magnetization       5.5099591

 Broyden mixing:
  rms(total) = 0.22740E+01    rms(broyden)= 0.22586E+01
  rms(prec ) = 0.23276E+01
  weight for this iteration     100.00

 eigenvalues of (default mixing * dielectric matrix)
  average eigenvalue GAMMA=   0.6866
  1.2243  1.2243  1.5438  1.5438  0.8040  0.8040  0.7350  0.7350  0.6116  0.6116
  0.6548  0.5250  0.5250  0.3631  0.4335  0.0191  0.0004  0.0000

 Free energy of the ion-electron system (eV)
  ---------------------------------------------------
  alpha Z        PSCENC =        24.40282534
  Ewald energy   TEWEN  =      8065.03639907
  -Hartree energ DENC   =    -11657.10871321
  -exchange      EXHF   =         0.00000000
  -V(xc)+E(xc)   XCENC  =       109.07251964
  PAW double counting   =      2310.42692213    -2389.86990101
  entropy T*S    EENTRO =         0.00000000
  eigenvalues    EBANDS =      -534.37108687
  atomic energy  EATOM  =      4037.76956432
  Solvation  Ediel_sol  =         0.00000000
  ---------------------------------------------------
  free energy    TOTEN  =       -34.64147059 eV

  energy without entropy =      -34.64147059  energy(sigma->0) =      -34.64147059


--------------------------------------------------------------------------------------------------------




--------------------------------------- Iteration      1(  24)  ---------------------------------------


    POTLOK:  cpu time   50.5520: real time   51.1019
    SETDIJ:  cpu time    0.0360: real time    0.0363
     EDDAV:  cpu time   24.9800: real time   25.1275
 BZINTS: Fermi energy: -4.659416; 64.000000 electrons
         Band energy:-533.997683;  BLOECHL correction: -0.011107
       DOS:  cpu time    0.0040: real time    0.0072
    CHARGE:  cpu time    2.1160: real time    2.1182
    MIXING:  cpu time    0.0600: real time    0.0628
    --------------------------------------------
      LOOP:  cpu time   77.7480: real time   78.4540

 eigenvalue-minimisations  :  1104
 total energy-change (2. order) :-0.3428390E-01  (-0.2984091E+02)
 number of electron      63.9999995 magnetization       6.5816269
 augmentation part        8.4857370 magnetization       3.8297907

 Broyden mixing:
  rms(total) = 0.22163E+01    rms(broyden)= 0.22154E+01
  rms(prec ) = 0.22771E+01
  weight for this iteration     100.00

 eigenvalues of (default mixing * dielectric matrix)
  average eigenvalue GAMMA=   0.8297
  3.1515  1.1581  1.6625  1.6625  1.0498  1.0498  0.7747  0.7747  0.6257  0.6257
  0.5510  0.5510  0.6878  0.3632  0.5523  0.5020  0.0219  0.0004  0.0000

 Free energy of the ion-electron system (eV)
  ---------------------------------------------------
[...]
     34      -1.8922      0.00000
     35      -1.7551      0.00000
     36       0.7714      0.00000
     37       0.8627      0.00000
     38       1.6443      0.00000
     39       1.7868      0.00000
     40       2.3498      0.00000
     41       2.4396      0.00000
     42       2.5943      0.00000
     43       2.8719      0.00000
     44       3.1377      0.00000
     45       3.2995      0.00000
     46       3.7979      0.00000
     47       3.9188      0.00000
     48       4.1536      0.00000

 k-point     5 :      -0.4000    0.2000    0.0000
  band No.  band energies     occupation 
      1     -16.5433      1.00000
      2     -16.1177      1.00000
      3     -15.7683      1.00000
      4     -15.6725      1.00000
      5     -15.4306      1.00000
      6     -15.2362      1.00000
      7     -10.5231      1.00000
      8      -9.3216      1.00000
      9      -8.1654      1.00000
     10      -7.6716      1.00000
     11      -7.6132      1.00000
     12      -7.0864      1.00000
     13      -6.9130      1.00000
     14      -6.5241      1.00000
     15      -6.2060      1.00000
     16      -5.9935      1.00000
     17      -5.8520      1.00000
     18      -5.7532      1.00000
     19      -5.5941      1.00000
     20      -5.3947      1.00000
     21      -5.2649      1.00000
     22      -4.6682      1.00000
     23      -4.5857      1.00000
     24      -4.4287      1.00000
     25      -4.3745      1.00000
     26      -4.0996      1.00000
     27      -3.9759      1.00000
     28      -3.8876      1.00000
     29      -3.8223      1.00000
     30      -3.6502      1.00000
     31      -3.3166      1.00000
     32      -2.2612      0.00000
     33      -2.2043      0.00000
     34      -1.8910      0.00000
     35      -1.6106      0.00000
     36       0.3199      0.00000
     37       0.7730      0.00000
     38       1.2006      0.00000
     39       1.5111      0.00000
     40       1.9443      0.00000
     41       2.2657      0.00000
     42       2.4248      0.00000
     43       3.2654      0.00000
     44       3.3582      0.00000
     45       3.4668      0.00000
     46       3.7184      0.00000
     47       3.7303      0.00000
     48       4.4666      0.00000


--------------------------------------------------------------------------------------------------------


 soft charge-density along one line, spin component           1
         0         1         2         3         4         5         6         7         8         9
 total charge-density along one line

 soft charge-density along one line, spin component           2
         0         1         2         3         4         5         6         7         8         9
 total charge-density along one line

 pseudopotential strength for first ion, spin component:           1
-10.897  -0.164  -0.000   0.000   0.000   1.531   0.069   0.000
 -0.164 -11.090   0.000   0.000   0.000   0.069   1.611  -0.000
 -0.000   0.000 -10.822   0.000   0.000   0.000  -0.000   1.500
  0.000   0.000   0.000 -11.090   0.164  -0.000  -0.000  -0.000
  0.000   0.000   0.000   0.164 -10.897  -0.000  -0.000  -0.000
  1.531   0.069   0.000  -0.000  -0.000   0.677  -0.029  -0.000
  0.069   1.611  -0.000  -0.000  -0.000  -0.029   0.644   0.000
  0.000  -0.000   1.500  -0.000  -0.000  -0.000   0.000   0.691
 -0.000  -0.000  -0.000   1.611  -0.069   0.000   0.000   0.000
 -0.000  -0.000  -0.000  -0.069   1.531   0.000   0.000   0.000
 -0.000  -0.000   0.009  -0.000   0.000  -0.000  -0.000  -0.003
  0.000   0.000  -0.001   0.000  -0.000  -0.000  -0.000   0.000
 -0.000  -0.000   0.000  -0.000   0.000  -0.000   0.000  -0.000
 -0.000  -0.000  -0.000  -0.000   0.000  -0.000   0.000   0.000
  0.000  -0.000   0.000  -0.000  -0.000   0.000  -0.000  -0.000
  0.000   0.000  -0.000   0.000  -0.000   0.000  -0.000   0.000
  0.000   0.000  -0.000   0.000  -0.000  -0.000  -0.000  -0.000
 -0.000   0.000  -0.000   0.000   0.000   0.000  -0.000   0.000
 pseudopotential strength for first ion, spin component:           2
-10.398   0.039  -0.000   0.000   0.000   1.318  -0.013   0.000
  0.039 -10.378   0.000   0.000   0.000  -0.013   1.312  -0.000
 -0.000   0.000 -10.449   0.000   0.000   0.000  -0.000   1.336
  0.000   0.000   0.000 -10.378  -0.039  -0.000  -0.000  -0.000
  0.000   0.000   0.000  -0.039 -10.398  -0.000  -0.000  -0.000
  1.318  -0.013   0.000  -0.000  -0.000   0.769   0.004  -0.000
 -0.013   1.312  -0.000  -0.000  -0.000   0.004   0.770   0.000
  0.000  -0.000   1.336  -0.000  -0.000  -0.000   0.000   0.763
 -0.000  -0.000  -0.000   1.312   0.013   0.000   0.000   0.000
 -0.000  -0.000  -0.000   0.013   1.318   0.000   0.000   0.000
 -0.000  -0.000   0.001  -0.000   0.000  -0.000  -0.000  -0.000
  0.000   0.000  -0.000   0.000  -0.000  -0.000  -0.000   0.000
  0.000  -0.000   0.000  -0.000   0.000  -0.000   0.000  -0.000
 -0.000  -0.000  -0.000  -0.000  -0.000  -0.000   0.000   0.000
  0.000  -0.000   0.000  -0.000  -0.000   0.000  -0.000  -0.000
  0.000   0.000  -0.000   0.000  -0.000   0.000  -0.000   0.000
  0.000   0.000  -0.000   0.000   0.000  -0.000  -0.000  -0.000
 -0.000   0.000  -0.000   0.000   0.000   0.000  -0.000   0.000
 total augmentation occupancy for first ion, spin component:           1
  1.800  -0.198   0.000   0.000  -0.000  -0.001   0.111  -0.000  -0.000   0.000  -0.000  -0.000  -0.000  -0.000   0.001   0.000
 -0.198   1.616  -0.000  -0.000   0.000   0.109   0.104   0.000  -0.000  -0.000   0.000   0.000  -0.000  -0.000   0.002   0.000
  0.000  -0.000   1.940  -0.000  -0.000  -0.000   0.000  -0.089   0.000   0.000  -0.018  -0.011  -0.000  -0.000   0.000   0.000
  0.000  -0.000  -0.000   1.616   0.198  -0.000   0.000   0.000   0.104  -0.109  -0.000   0.000  -0.002   0.000  -0.000   0.000
 -0.000   0.000  -0.000   0.198   1.800  -0.000  -0.000   0.000  -0.111  -0.001   0.000   0.000   0.001   0.000   0.000  -0.001
 -0.001   0.109  -0.000  -0.000  -0.000   0.096   0.067   0.000  -0.000  -0.000   0.000  -0.000  -0.000   0.000   0.011   0.000
  0.111   0.104   0.000   0.000  -0.000   0.067   0.176   0.000  -0.000  -0.000   0.000  -0.000  -0.000   0.000  -0.001   0.000
 -0.000   0.000  -0.089   0.000   0.000   0.000   0.000   0.081   0.000  -0.000   0.036  -0.017  -0.000   0.000   0.000   0.000
 -0.000  -0.000   0.000   0.104  -0.111  -0.000  -0.000   0.000   0.176  -0.067  -0.000   0.000   0.001   0.000  -0.000  -0.000
  0.000  -0.000   0.000  -0.109  -0.001  -0.000  -0.000  -0.000  -0.067   0.096  -0.000   0.000   0.011  -0.000   0.000  -0.002
 -0.000   0.000  -0.018   0.000   0.000   0.000   0.000   0.036  -0.000  -0.000   1.010  -0.304  -0.000  -0.000   0.000  -0.000
 -0.000  -0.000  -0.011   0.000   0.000  -0.000  -0.000  -0.017   0.000   0.000  -0.304   0.161   0.000  -0.000   0.000   0.000
 -0.000  -0.000  -0.000  -0.002   0.001  -0.000  -0.000  -0.000   0.001   0.011  -0.000  -0.000   0.199  -0.000  -0.000  -0.016
 -0.000   0.000  -0.000   0.000   0.000   0.000   0.000   0.000   0.000  -0.000  -0.000  -0.000  -0.000   0.211   0.000   0.000
  0.001   0.002   0.000  -0.000   0.000   0.011  -0.001   0.000  -0.000   0.000   0.000  -0.000  -0.000   0.000   0.199   0.000
  0.000   0.000   0.000   0.000  -0.001   0.000   0.000   0.000  -0.000  -0.002  -0.000  -0.000  -0.016   0.000   0.000   0.002
  0.000  -0.000   0.000   0.000  -0.000  -0.000   0.000  -0.000   0.000   0.000  -0.000   0.000   0.000  -0.019  -0.000  -0.000
 -0.001  -0.000  -0.000   0.000  -0.000  -0.002   0.000  -0.000   0.000  -0.000   0.000   0.000  -0.000  -0.000  -0.016  -0.000
 total augmentation occupancy for first ion, spin component:           2
  0.060   0.111   0.000  -0.000  -0.000  -0.061  -0.058  -0.000   0.000   0.000   0.000   0.000   0.000  -0.000  -0.001   0.000
  0.111   0.178   0.000  -0.000  -0.000  -0.058  -0.126  -0.000   0.000   0.000   0.000  -0.000   0.000   0.000   0.001   0.000
  0.000   0.000  -0.007   0.000  -0.000  -0.000  -0.000  -0.027  -0.000   0.000   0.003   0.003   0.000  -0.000  -0.000  -0.000
 -0.000  -0.000   0.000   0.178  -0.111   0.000  -0.000  -0.000  -0.126   0.058   0.000   0.000  -0.001  -0.000   0.000  -0.000
 -0.000  -0.000  -0.000  -0.111   0.060  -0.000   0.000   0.000   0.058  -0.061  -0.000  -0.000  -0.001   0.000  -0.000   0.000
 -0.061  -0.058  -0.000   0.000  -0.000   0.016   0.024   0.000  -0.000  -0.000  -0.000   0.000  -0.000   0.000   0.001  -0.000
 -0.058  -0.126  -0.000  -0.000   0.000   0.024   0.045   0.000  -0.000  -0.000  -0.000   0.000  -0.000  -0.000  -0.000  -0.000
 -0.000  -0.000  -0.027  -0.000   0.000   0.000   0.000   0.004   0.000  -0.000  -0.000   0.000  -0.000   0.000   0.000  -0.000
  0.000   0.000  -0.000  -0.126   0.058  -0.000  -0.000   0.000   0.045  -0.024   0.000   0.000   0.000   0.000  -0.000   0.000
  0.000   0.000   0.000   0.058  -0.061  -0.000  -0.000  -0.000  -0.024   0.016   0.000  -0.000   0.001  -0.000   0.000   0.000
  0.000   0.000   0.003  -0.000  -0.000  -0.000  -0.000  -0.000  -0.000   0.000   0.004   0.022   0.000  -0.000   0.000  -0.000
  0.000   0.000   0.003  -0.000  -0.000   0.000   0.000   0.000   0.000  -0.000   0.022  -0.013  -0.000   0.000   0.000   0.000
  0.000   0.000   0.000  -0.001  -0.001  -0.000  -0.000  -0.000   0.000   0.001   0.000  -0.000  -0.000  -0.000   0.000   0.001
 -0.000  -0.000  -0.000   0.000   0.000   0.000   0.000   0.000   0.000  -0.000  -0.000   0.000   0.000   0.001   0.000  -0.000
 -0.001   0.001  -0.000   0.000  -0.000   0.001  -0.000   0.000  -0.000   0.000   0.000  -0.000   0.000   0.000  -0.000  -0.000
  0.000   0.000  -0.000  -0.000   0.000  -0.000  -0.000  -0.000   0.000   0.000  -0.000  -0.000   0.001  -0.000  -0.000  -0.000
  0.000   0.000   0.000  -0.000  -0.000   0.000   0.000   0.000   0.000  -0.000   0.000  -0.000  -0.000   0.001   0.000   0.000
  0.000   0.000   0.000   0.000  -0.000   0.000  -0.000   0.000  -0.000   0.000  -0.000  -0.000   0.000   0.000   0.001   0.000


------------------------ aborting loop because EDIFF is reached ----------------------------------------





 total charge     

# of ion       s       p       d       tot
------------------------------------------
    1        0.394   0.468   8.303   9.166
    2        0.394   0.468   8.303   9.166
    3        0.737   0.908   0.000   1.646
    4        0.737   0.908   0.000   1.646
    5        1.371   2.292   0.000   3.664
    6        1.365   2.371   0.000   3.736
    7        1.369   2.316   0.000   3.685
    8        1.371   2.292   0.000   3.664
    9        1.365   2.371   0.000   3.736
   10        1.369   2.316   0.000   3.685
--------------------------------------------------
tot         10.473  16.711  16.607  43.791



 magnetization (x)

# of ion       s       p       d       tot
------------------------------------------
    1       -0.002  -0.002   0.649   0.646
    2       -0.002  -0.002   0.649   0.646
    3        0.001  -0.001   0.000  -0.000
    4        0.001  -0.001   0.000  -0.000
    5        0.009   0.043   0.000   0.052
    6        0.010   0.066   0.000   0.076
    7        0.008   0.055   0.000   0.063
    8        0.009   0.043   0.000   0.052
    9        0.010   0.066   0.000   0.076
   10        0.008   0.055   0.000   0.063
--------------------------------------------------
tot          0.054   0.321   1.298   1.673

    CHARGE:  cpu time    2.0480: real time    2.0992
    FORLOC:  cpu time    0.0560: real time    0.0552
    FORNL :  cpu time    6.6000: real time    6.6564
    STRESS:  cpu time   19.6360: real time   19.8817
    FORCOR:  cpu time   52.2600: real time   52.4458
    FORHAR:  cpu time    0.3200: real time    0.3207
    MIXING:  cpu time    0.0400: real time    0.0407
    OFIELD:  cpu time    0.0000: real time    0.0000

  FORCE on cell =-STRESS in cart. coord.  units (eV):
  Direction    XX          YY          ZZ          XY          YZ          ZX
  --------------------------------------------------------------------------------------
  Alpha Z    37.76417    37.76417    37.76417
  Ewald   13308.82298 13308.82032-15615.17891    -0.00233    -0.00062    -0.00111
  Hartree 14054.21163 14054.21268-13443.68493    -0.00054     0.00006     0.00010
  E(xc)    -267.43819  -267.43817  -266.99748    -0.00000     0.00000     0.00001
  Local  -28260.86488-28260.86472 28130.28922     0.00244     0.00037     0.00068
  n-local   448.63316   449.11991   448.08723     0.14260     0.59001     0.22258
  augment    -9.51230    -9.51217   -13.25757     0.00004     0.00004     0.00005
  Kinetic   692.59976   683.58778   722.73453    -4.41014    -0.64553    -1.31694
  Fock        0.00000     0.00000     0.00000     0.00000     0.00000     0.00000
  -------------------------------------------------------------------------------------
  Total      -0.04693    -0.04693    -0.24375     0.00000    -0.00000     0.00000
  in kB      -0.12010    -0.12010    -0.62379     0.00000    -0.00000     0.00000
  external pressure =       -0.29 kB  Pullay stress =        0.00 kB


 VOLUME and BASIS-vectors are now :
 -----------------------------------------------------------------------------
  energy-cutoff  :      520.00
  volume of cell :      626.05
      direct lattice vectors                 reciprocal lattice vectors
     5.818254417  0.000000030  0.000000000     0.171872856 -0.099230833 -0.000000000
     2.909126918  5.038755953 -0.000000000    -0.000000001  0.198461686  0.000000000
     0.000000000 -0.000000000 21.354722949    -0.000000000  0.000000000  0.046828048

  length of vectors
     5.818254417  5.818254118 21.354722949     0.198461676  0.198461686  0.046828048


 FORCES acting on ions
    electron-ion (+dipol)            ewald-force                    non-local-force                 convergence-correction
 -----------------------------------------------------------------------------------------------
   -.132E-03 -.832E-04 0.963E+00   0.898E-03 0.533E-03 -.973E+00   0.208E-16 -.693E-21 0.128E-01   0.890E-07 0.561E-07 0.751E-03
   0.132E-03 0.832E-04 -.963E+00   -.898E-03 -.533E-03 0.973E+00   0.139E-16 0.693E-21 -.128E-01   -.890E-07 -.561E-07 -.751E-03
   -.297E-04 -.480E-04 0.283E+03   -.223E-03 -.125E-03 -.276E+03   0.137E-16 0.143E-16 -.702E+01   0.243E-07 0.128E-07 0.322E-01
   0.297E-04 0.480E-04 -.283E+03   0.223E-03 0.125E-03 0.276E+03   0.175E-16 -.143E-16 0.702E+01   -.243E-07 -.128E-07 -.322E-01
   -.278E+02 0.286E-02 -.601E+03   0.247E+02 0.780E-03 0.605E+03   0.310E+01 -.828E-02 -.406E+01   -.857E-02 0.433E-03 -.726E-01
   0.139E+02 0.241E+02 -.601E+03   -.124E+02 -.214E+02 0.605E+03   -.156E+01 -.268E+01 -.406E+01   0.466E-02 0.720E-02 -.726E-01
   0.139E+02 -.241E+02 -.601E+03   -.124E+02 0.214E+02 0.605E+03   -.155E+01 0.269E+01 -.406E+01   0.391E-02 -.764E-02 -.726E-01
   0.278E+02 -.286E-02 0.601E+03   -.247E+02 -.780E-03 -.605E+03   -.310E+01 0.828E-02 0.406E+01   0.857E-02 -.433E-03 0.726E-01
   -.139E+02 -.241E+02 0.601E+03   0.124E+02 0.214E+02 -.605E+03   0.156E+01 0.268E+01 0.406E+01   -.466E-02 -.720E-02 0.726E-01
   -.139E+02 0.241E+02 0.601E+03   0.124E+02 -.214E+02 -.605E+03   0.155E+01 -.269E+01 0.406E+01   -.391E-02 0.764E-02 0.726E-01
 -----------------------------------------------------------------------------------------------
   0.248E-09 0.357E-09 0.160E-09   0.000E+00 0.107E-13 -.114E-12   -.444E-15 -.444E-15 0.000E+00   -.562E-12 0.667E-12 0.318E-10


 POSITION                                       TOTAL-FORCE (eV/Angst)
 -----------------------------------------------------------------------------------
      2.90912      1.67958     10.67612         0.000000     -0.000000      0.003546
      5.81826      3.35917     10.67860        -0.000000      0.000000     -0.003546
      0.00000     -0.00000      9.54422        -0.000000     -0.000000     -0.021398
      0.00000     -0.00000     11.81050         0.000000     -0.000000      0.021398
      3.69990      0.00096     12.17019        -0.002031     -0.003365      0.016003
      1.06001      1.83408     12.17019        -0.001899      0.003442      0.016003
      3.96748      3.20373     12.17019         0.003930     -0.000077      0.016003
      5.02748      5.03780      9.18453         0.002031      0.003365     -0.016003
      7.66737      3.20468      9.18453         0.001899     -0.003442     -0.016003
      4.75990      1.83503      9.18453        -0.003930      0.000077     -0.016003
 -----------------------------------------------------------------------------------
    total drift:                                0.000000      0.000000      0.000000


--------------------------------------------------------------------------------------------------------



  FREE ENERGIE OF THE ION-ELECTRON SYSTEM (eV)
  ---------------------------------------------------
  free  energy   TOTEN  =       -44.92598486 eV

  energy  without entropy=      -44.92598486  energy(sigma->0) =      -44.92598486

 d Force =-0.1143720E-04[-0.188E-04,-0.407E-05]  d Energy = 0.2488938E-03-0.260E-03
 d Force =-0.9796178E+00[-0.980E+00,-0.980E+00]  d Ewald  = 0.6500865E+01-0.748E+01


--------------------------------------------------------------------------------------------------------


    POTLOK:  cpu time   52.2680: real time   52.4721


--------------------------------------------------------------------------------------------------------




--------------------------------------------------------------------------------------------------------


  
 reached required accuracy - stopping structural energy minimisation
     LOOP+:  cpu time  439.5560: real time  442.9580
    4ORBIT:  cpu time    0.0000: real time    0.0000



 total charge     

# of ion       s       p       d       tot
------------------------------------------
    1        0.394   0.468   8.303   9.166
    2        0.394   0.468   8.303   9.166
    3        0.737   0.908   0.000   1.646
    4        0.737   0.908   0.000   1.646
    5        1.371   2.292   0.000   3.664
    6        1.365   2.371   0.000   3.736
    7        1.369   2.316   0.000   3.685
    8        1.371   2.292   0.000   3.664
    9        1.365   2.371   0.000   3.736
   10        1.369   2.316   0.000   3.685
--------------------------------------------------
tot         10.473  16.711  16.607  43.791



 magnetization (x)

# of ion       s       p       d       tot
------------------------------------------
    1       -0.002  -0.002   0.649   0.646
    2       -0.002  -0.002   0.649   0.646
    3        0.001  -0.001   0.000  -0.000
    4        0.001  -0.001   0.000  -0.000
    5        0.009   0.043   0.000   0.052
    6        0.010   0.066   0.000   0.076
    7        0.008   0.055   0.000   0.063
    8        0.009   0.043   0.000   0.052
    9        0.010   0.066   0.000   0.076
   10        0.008   0.055   0.000   0.063
--------------------------------------------------
tot          0.054   0.321   1.298   1.673

 BZINTS: Fermi energy: -2.500509; 64.000000 electrons
         Band energy:-491.537107;  BLOECHL correction:  0.000000

 total amount of memory used by VASP MPI-rank0   129021. kBytes
=======================================================================

   base      :      30000. kBytes
   nonlr-proj:       8726. kBytes
   fftplans  :      11247. kBytes
   grid      :      66142. kBytes
   one-center:        311. kBytes
   wavefun   :      12595. kBytes

  
  
 General timing and accounting informations for this job:
 ========================================================
  
                  Total CPU time used (sec):     8059.316
                            User time (sec):     7877.600
                          System time (sec):      181.716
                         Elapsed time (sec):     8110.366
  
                   Maximum memory used (kb):      382416.
                   Average memory used (kb):           0.
  
                          Minor page faults:      7330465
                          Major page faults:            7
                 Voluntary context switches:         1081
