PROCAR lm decomposed
# of k-points:    5         # of bands:   48         # of ions:   10

 k-point     1 :    0.00000000 0.00000000 0.00000000     weight = 0.04000000

band     1 # energy  -17.47931369 # occ.  1.00000000

ion      s     py     pz     px    dxy    dyz    dz2    dxz  x2-y2    tot
    1  0.021  0.000  0.000  0.000  0.000  0.000  0.000  0.000  0.000  0.021
    2  0.021  0.000  0.000  0.000  0.000  0.000  0.000  0.000  0.000  0.021
    3  0.045  0.000  0.000  0.000  0.000  0.000  0.000  0.000  0.000  0.045
    4  0.045  0.000  0.000  0.000  0.000  0.000  0.000  0.000  0.000  0.045
    5  0.080  0.000  0.001  0.001  0.000  0.000  0.000  0.000  0.000  0.082
    6  0.080  0.001  0.001  0.000  0.000  0.000  0.000  0.000  0.000  0.082
    7  0.080  0.001  0.001  0.000  0.000  0.000  0.000  0.000  0.000  0.082
    8  0.080  0.000  0.001  0.001  0.000  0.000  0.000  0.000  0.000  0.082
    9  0.080  0.001  0.001  0.000  0.000  0.000  0.000  0.000  0.000  0.082
   10  0.080  0.001  0.001  0.000  0.000  0.000  0.000  0.000  0.000  0.082
tot    0.610  0.003  0.006  0.003  0.000  0.000  0.000  0.000  0.000  0.621

band     2 # energy  -16.45674076 # occ.  1.00000000

ion      s     py     pz     px    dxy    dyz    dz2    dxz  x2-y2    tot
    1  0.000  0.000  0.009  0.000  0.000  0.000  0.000  0.000  0.000  0.009
    2  0.000  0.000  0.009  0.000  0.000  0.000  0.000  0.000  0.000  0.009
    3  0.033  0.000  0.002  0.000  0.000  0.000  0.000  0.000  0.000  0.034
    4  0.033  0.000  0.002  0.000  0.000  0.000  0.000  0.000  0.000  0.034
    5  0.094  0.000  0.000  0.001  0.000  0.000  0.000  0.000  0.000  0.096
    6  0.094  0.001  0.000  0.000  0.000  0.000  0.000  0.000  0.000  0.096
    7  0.094  0.001  0.000  0.000  0.000  0.000  0.000  0.000  0.000  0.096
    8  0.094  0.000  0.000  0.001  0.000  0.000  0.000  0.000  0.000  0.096
    9  0.094  0.001  0.000  0.000  0.000  0.000  0.000  0.000  0.000  0.096
   10  0.094  0.001  0.000  0.000  0.000  0.000  0.000  0.000  0.000  0.096
tot    0.631  0.003  0.021  0.003  0.000  0.000  0.000  0.000  0.000  0.659

band     3 # energy  -15.15377492 # occ.  1.00000000

ion      s     py     pz     px    dxy    dyz    dz2    dxz  x2-y2    tot
    1  0.000  0.000  0.000  0.002  0.003  0.008  0.000  0.000  0.000  0.013
    2  0.000  0.000  0.000  0.002  0.003  0.008  0.000  0.000  0.000  0.013
    3  0.000  0.000  0.000  0.015  0.000  0.000  0.000  0.000  0.000  0.015
    4  0.000  0.000  0.000  0.015  0.000  0.000  0.000  0.000  0.000  0.015
    5  0.216  0.000  0.001  0.003  0.000  0.000  0.000  0.000  0.000  0.220
    6  0.067  0.001  0.000  0.000  0.000  0.000  0.000  0.000  0.000  0.068
    7  0.043  0.000  0.000  0.000  0.000  0.000  0.000  0.000  0.000  0.043
    8  0.216  0.000  0.001  0.003  0.000  0.000  0.000  0.000  0.000  0.220
    9  0.067  0.001  0.000  0.000  0.000  0.000  0.000  0.000  0.000  0.068
   10  0.043  0.000  0.000  0.000  0.000  0.000  0.000  0.000  0.000  0.043
tot    0.652  0.003  0.003  0.040  0.006  0.015  0.000  0.000  0.000  0.720

band     4 # energy  -15.15372735 # occ.  1.00000000

ion      s     py     pz     px    dxy    dyz    dz2    dxz  x2-y2    tot
    1  0.000  0.002  0.000  0.000  0.000  0.000  0.000  0.008  0.003  0.013
    2  0.000  0.002  0.000  0.000  0.000  0.000  0.000  0.008  0.003  0.013
    3  0.000  0.015  0.000  0.000  0.000  0.000  0.000  0.000  0.000  0.015
    4  0.000  0.015  0.000  0.000  0.000  0.000  0.000  0.000  0.000  0.015
    5  0.001  0.000  0.000  0.000  0.000  0.000  0.000  0.000  0.000  0.001
    6  0.150  0.001  0.001  0.001  0.000  0.000  0.000  0.000  0.000  0.153
    7  0.175  0.002  0.001  0.001  0.000  0.000  0.000  0.000  0.000  0.178
    8  0.001  0.000  0.000  0.000  0.000  0.000  0.000  0.000  0.000  0.001
    9  0.150  0.001  0.001  0.001  0.000  0.000  0.000  0.000  0.000  0.153
   10  0.175  0.002  0.001  0.001  0.000  0.000  0.000  0.000  0.000  0.178
tot    0.652  0.040  0.003  0.003  0.000  0.000  0.000  0.015  0.006  0.720

band     5 # energy  -15.12487746 # occ.  1.00000000

ion      s     py     pz     px    dxy    dyz    dz2    dxz  x2-y2    tot
    1  0.000  0.008  0.000  0.000  0.000  0.000  0.000  0.002  0.002  0.013
    2  0.000  0.008  0.000  0.000  0.000  0.000  0.000  0.002  0.002  0.013
    3  0.000  0.000  0.000  0.010  0.000  0.000  0.000  0.000  0.000  0.010
    4  0.000  0.000  0.000  0.010  0.000  0.000  0.000  0.000  0.000  0.010
    5  0.215  0.000  0.001  0.001  0.000  0.000  0.000  0.000  0.000  0.218
    6  0.097  0.000  0.000  0.000  0.000  0.000  0.000  0.000  0.000  0.098
    7  0.023  0.000  0.000  0.000  0.000  0.000  0.000  0.000  0.000  0.024
    8  0.215  0.000  0.001  0.001  0.000  0.000  0.000  0.000  0.000  0.218
    9  0.097  0.000  0.000  0.000  0.000  0.000  0.000  0.000  0.000  0.098
   10  0.023  0.000  0.000  0.000  0.000  0.000  0.000  0.000  0.000  0.024
tot    0.671  0.018  0.003  0.024  0.000  0.000  0.000  0.004  0.003  0.724

band     6 # energy  -15.12483934 # occ.  1.00000000

ion      s     py     pz     px    dxy    dyz    dz2    dxz  x2-y2    tot
    1  0.000  0.000  0.000  0.008  0.002  0.002  0.000  0.000  0.000  0.013
    2  0.000  0.000  0.000  0.008  0.002  0.002  0.000  0.000  0.000  0.013
    3  0.000  0.010  0.000  0.000  0.000  0.000  0.000  0.000  0.000  0.010
    4  0.000  0.010  0.000  0.000  0.000  0.000  0.000  0.000  0.000  0.010
    5  0.008  0.000  0.000  0.000  0.000  0.000  0.000  0.000  0.000  0.008
    6  0.127  0.001  0.001  0.000  0.000  0.000  0.000  0.000  0.000  0.128
    7  0.200  0.001  0.001  0.000  0.000  0.000  0.000  0.000  0.000  0.203
    8  0.008  0.000  0.000  0.000  0.000  0.000  0.000  0.000  0.000  0.008
    9  0.127  0.001  0.001  0.000  0.000  0.000  0.000  0.000  0.000  0.128
   10  0.200  0.001  0.001  0.000  0.000  0.000  0.000  0.000  0.000  0.203
tot    0.671  0.024  0.003  0.018  0.003  0.004  0.000  0.000  0.000  0.724

band     7 # energy  -11.04671922 # occ.  1.00000000

ion      s     py     pz     px    dxy    dyz    dz2    dxz  x2-y2    tot
    1  0.018  0.000  0.000  0.000  0.000  0.000  0.002  0.000  0.000  0.021
    2  0.018  0.000  0.000  0.000  0.000  0.000  0.002  0.000  0.000  0.021
    3  0.151  0.000  0.008  0.000  0.000  0.000  0.000  0.000  0.000  0.159
    4  0.151  0.000  0.008  0.000  0.000  0.000  0.000  0.000  0.000  0.159
    5  0.015  0.000  0.000  0.022  0.000  0.000  0.000  0.000  0.000  0.037
    6  0.015  0.017  0.000  0.006  0.000  0.000  0.000  0.000  0.000  0.037
    7  0.015  0.017  0.000  0.006  0.000  0.000  0.000  0.000  0.000  0.037
    8  0.015  0.000  0.000  0.022  0.000  0.000  0.000  0.000  0.000  0.037
    9  0.015  0.017  0.000  0.006  0.000  0.000  0.000  0.000  0.000  0.037
   10  0.015  0.017  0.000  0.006  0.000  0.000  0.000  0.000  0.000  0.037
tot    0.427  0.067  0.016  0.067  0.000  0.000  0.005  0.000  0.000  0.581

band     8 # energy   -9.12310330 # occ.  1.00000000

ion      s     py     pz     px    dxy    dyz    dz2    dxz  x2-y2    tot
    1  0.000  0.000  0.012  0.000  0.000  0.000  0.000  0.000  0.000  0.012
    2  0.000  0.000  0.012  0.000  0.000  0.000  0.000  0.000  0.000  0.012
    3  0.125  0.000  0.009  0.000  0.000  0.000  0.000  0.000  0.000  0.134
    4  0.125  0.000  0.009  0.000  0.000  0.000  0.000  0.000  0.000  0.134
    5  0.010  0.000  0.000  0.040  0.000  0.000  0.000  0.000  0.000  0.051
    6  0.010  0.030  0.000  0.010  0.000  0.000  0.000  0.000  0.000  0.051
    7  0.010  0.030  0.000  0.010  0.000  0.000  0.000  0.000  0.000  0.051
    8  0.010  0.000  0.000  0.040  0.000  0.000  0.000  0.000  0.000  0.051
    9  0.010  0.030  0.000  0.010  0.000  0.000  0.000  0.000  0.000  0.051
   10  0.010  0.030  0.000  0.010  0.000  0.000  0.000  0.000  0.000  0.051
tot    0.312  0.121  0.042  0.121  0.000  0.000  0.000  0.000  0.000  0.596

band     9 # energy   -8.24445569 # occ.  1.00000000

ion      s     py     pz     px    dxy    dyz    dz2    dxz  x2-y2    tot
    1  0.045  0.000  0.000  0.000  0.000  0.000  0.018  0.000  0.000  0.063
    2  0.045  0.000  0.000  0.000  0.000  0.000  0.018  0.000  0.000  0.063
    3  0.000  0.000  0.038  0.000  0.000  0.000  0.000  0.000  0.000  0.038
    4  0.000  0.000  0.038  0.000  0.000  0.000  0.000  0.000  0.000  0.038
    5  0.004  0.000  0.039  0.005  0.000  0.000  0.000  0.000  0.000  0.048
    6  0.004  0.004  0.039  0.001  0.000  0.000  0.000  0.000  0.000  0.048
    7  0.004  0.004  0.039  0.001  0.000  0.000  0.000  0.000  0.000  0.048
    8  0.004  0.000  0.039  0.005  0.000  0.000  0.000  0.000  0.000  0.048
    9  0.004  0.004  0.039  0.001  0.000  0.000  0.000  0.000  0.000  0.048
   10  0.004  0.004  0.039  0.001  0.000  0.000  0.000  0.000  0.000  0.048
tot    0.116  0.016  0.309  0.016  0.000  0.000  0.036  0.000  0.000  0.493

band    10 # energy   -8.22611782 # occ.  1.00000000

ion      s     py     pz     px    dxy    dyz    dz2    dxz  x2-y2    tot
    1  0.000  0.002  0.000  0.002  0.001  0.027  0.000  0.039  0.001  0.071
    2  0.000  0.002  0.000  0.002  0.001  0.027  0.000  0.039  0.001  0.071
    3  0.000  0.024  0.000  0.016  0.000  0.000  0.000  0.000  0.000  0.040
    4  0.000  0.024  0.000  0.016  0.000  0.000  0.000  0.000  0.000  0.040
    5  0.003  0.015  0.001  0.029  0.000  0.000  0.000  0.000  0.000  0.049
    6  0.008  0.059  0.001  0.012  0.000  0.000  0.000  0.000  0.000  0.080
    7  0.001  0.000  0.000  0.031  0.000  0.000  0.000  0.000  0.000  0.033
    8  0.003  0.015  0.001  0.029  0.000  0.000  0.000  0.000  0.000  0.049
    9  0.008  0.059  0.001  0.012  0.000  0.000  0.000  0.000  0.000  0.080
   10  0.001  0.000  0.000  0.031  0.000  0.000  0.000  0.000  0.000  0.033
tot    0.026  0.200  0.004  0.181  0.001  0.053  0.000  0.077  0.002  0.545

band    11 # energy   -8.22609151 # occ.  1.00000000

ion      s     py     pz     px    dxy    dyz    dz2    dxz  x2-y2    tot
    1  0.000  0.002  0.000  0.002  0.001  0.039  0.000  0.027  0.001  0.071
    2  0.000  0.002  0.000  0.002  0.001  0.039  0.000  0.027  0.001  0.071
    3  0.000  0.016  0.000  0.024  0.000  0.000  0.000  0.000  0.000  0.040
    4  0.000  0.016  0.000  0.024  0.000  0.000  0.000  0.000  0.000  0.040
    5  0.005  0.011  0.001  0.043  0.000  0.000  0.000  0.000  0.000  0.059
    6  0.000  0.002  0.000  0.026  0.000  0.000  0.000  0.000  0.000  0.027
    7  0.008  0.060  0.001  0.006  0.000  0.000  0.000  0.000  0.000  0.075
    8  0.005  0.011  0.001  0.043  0.000  0.000  0.000  0.000  0.000  0.059
    9  0.000  0.002  0.000  0.026  0.000  0.000  0.000  0.000  0.000  0.027
   10  0.008  0.060  0.001  0.006  0.000  0.000  0.000  0.000  0.000  0.075
tot    0.026  0.181  0.004  0.200  0.002  0.077  0.000  0.053  0.001  0.545

band    12 # energy   -7.95035541 # occ.  1.00000000

ion      s     py     pz     px    dxy    dyz    dz2    dxz  x2-y2    tot
    1  0.086  0.000  0.000  0.000  0.000  0.000  0.029  0.000  0.000  0.115
    2  0.086  0.000  0.000  0.000  0.000  0.000  0.029  0.000  0.000  0.115
    3  0.000  0.000  0.000  0.000  0.000  0.000  0.000  0.000  0.000  0.000
    4  0.000  0.000  0.000  0.000  0.000  0.000  0.000  0.000  0.000  0.000
    5  0.000  0.057  0.000  0.000  0.000  0.000  0.000  0.000  0.000  0.057
    6  0.000  0.014  0.000  0.043  0.000  0.000  0.000  0.000  0.000  0.057
    7  0.000  0.014  0.000  0.043  0.000  0.000  0.000  0.000  0.000  0.057
    8  0.000  0.057  0.000  0.000  0.000  0.000  0.000  0.000  0.000  0.057
    9  0.000  0.014  0.000  0.043  0.000  0.000  0.000  0.000  0.000  0.057
   10  0.000  0.014  0.000  0.043  0.000  0.000  0.000  0.000  0.000  0.057
tot    0.172  0.171  0.000  0.171  0.000  0.000  0.057  0.000  0.000  0.571

band    13 # energy   -7.89048108 # occ.  1.00000000

ion      s     py     pz     px    dxy    dyz    dz2    dxz  x2-y2    tot
    1  0.000  0.017  0.000  0.004  0.002  0.003  0.000  0.012  0.010  0.048
    2  0.000  0.017  0.000  0.004  0.002  0.003  0.000  0.012  0.010  0.048
    3  0.000  0.007  0.000  0.028  0.000  0.000  0.000  0.000  0.000  0.035
    4  0.000  0.007  0.000  0.028  0.000  0.000  0.000  0.000  0.000  0.035
    5  0.000  0.005  0.006  0.068  0.000  0.000  0.000  0.000  0.000  0.080
    6  0.000  0.065  0.005  0.002  0.000  0.000  0.000  0.000  0.000  0.072
    7  0.000  0.010  0.000  0.017  0.000  0.000  0.000  0.000  0.000  0.026
    8  0.000  0.005  0.006  0.068  0.000  0.000  0.000  0.000  0.000  0.080
    9  0.000  0.065  0.005  0.002  0.000  0.000  0.000  0.000  0.000  0.072
   10  0.000  0.010  0.000  0.017  0.000  0.000  0.000  0.000  0.000  0.026
tot    0.002  0.206  0.022  0.238  0.005  0.006  0.000  0.024  0.020  0.521

band    14 # energy   -7.89045696 # occ.  1.00000000

ion      s     py     pz     px    dxy    dyz    dz2    dxz  x2-y2    tot
    1  0.000  0.004  0.000  0.017  0.010  0.012  0.000  0.003  0.002  0.048
    2  0.000  0.004  0.000  0.017  0.010  0.012  0.000  0.003  0.002  0.048
    3  0.000  0.028  0.000  0.007  0.000  0.000  0.000  0.000  0.000  0.035
    4  0.000  0.028  0.000  0.007  0.000  0.000  0.000  0.000  0.000  0.035
    5  0.000  0.021  0.001  0.016  0.000  0.000  0.000  0.000  0.000  0.039
    6  0.000  0.005  0.002  0.039  0.000  0.000  0.000  0.000  0.000  0.047
    7  0.001  0.060  0.007  0.024  0.000  0.000  0.000  0.000  0.000  0.092
    8  0.000  0.021  0.001  0.016  0.000  0.000  0.000  0.000  0.000  0.039
    9  0.000  0.005  0.002  0.039  0.000  0.000  0.000  0.000  0.000  0.047
   10  0.001  0.060  0.007  0.024  0.000  0.000  0.000  0.000  0.000  0.092
tot    0.002  0.238  0.022  0.206  0.020  0.024  0.000  0.006  0.005  0.521

band    15 # energy   -6.55805272 # occ.  1.00000000

ion      s     py     pz     px    dxy    dyz    dz2    dxz  x2-y2    tot
    1  0.000  0.000  0.046  0.000  0.000  0.000  0.000  0.000  0.000  0.046
    2  0.000  0.000  0.046  0.000  0.000  0.000  0.000  0.000  0.000  0.046
    3  0.000  0.000  0.000  0.000  0.000  0.000  0.000  0.000  0.000  0.000
    4  0.000  0.000  0.000  0.000  0.000  0.000  0.000  0.000  0.000  0.000
    5  0.000  0.074  0.000  0.000  0.000  0.000  0.000  0.000  0.000  0.074
    6  0.000  0.018  0.000  0.055  0.000  0.000  0.000  0.000  0.000  0.074
    7  0.000  0.018  0.000  0.055  0.000  0.000  0.000  0.000  0.000  0.074
    8  0.000  0.074  0.000  0.000  0.000  0.000  0.000  0.000  0.000  0.074
    9  0.000  0.018  0.000  0.055  0.000  0.000  0.000  0.000  0.000  0.074
   10  0.000  0.018  0.000  0.055  0.000  0.000  0.000  0.000  0.000  0.074
tot    0.000  0.221  0.092  0.221  0.000  0.000  0.000  0.000  0.000  0.533

band    16 # energy   -6.29671007 # occ.  1.00000000

ion      s     py     pz     px    dxy    dyz    dz2    dxz  x2-y2    tot
    1  0.000  0.000  0.000  0.000  0.004  0.006  0.000  0.175  0.136  0.321
    2  0.000  0.000  0.000  0.000  0.004  0.006  0.000  0.175  0.136  0.321
    3  0.000  0.000  0.000  0.000  0.000  0.000  0.000  0.000  0.000  0.000
    4  0.000  0.000  0.000  0.000  0.000  0.000  0.000  0.000  0.000  0.000
    5  0.001  0.001  0.019  0.006  0.000  0.000  0.000  0.000  0.000  0.027
    6  0.000  0.005  0.002  0.028  0.000  0.000  0.000  0.000  0.000  0.035
    7  0.000  0.001  0.008  0.023  0.000  0.000  0.000  0.000  0.000  0.032
    8  0.001  0.001  0.019  0.006  0.000  0.000  0.000  0.000  0.000  0.027
    9  0.000  0.005  0.002  0.028  0.000  0.000  0.000  0.000  0.000  0.035
   10  0.000  0.001  0.008  0.023  0.000  0.000  0.000  0.000  0.000  0.032
tot    0.004  0.014  0.060  0.113  0.009  0.011  0.000  0.350  0.271  0.832

band    17 # energy   -6.29669285 # occ.  1.00000000

ion      s     py     pz     px    dxy    dyz    dz2    dxz  x2-y2    tot
    1  0.000  0.000  0.000  0.000  0.136  0.175  0.000  0.006  0.004  0.321
    2  0.000  0.000  0.000  0.000  0.136  0.175  0.000  0.006  0.004  0.321
    3  0.000  0.000  0.000  0.000  0.000  0.000  0.000  0.000  0.000  0.000
    4  0.000  0.000  0.000  0.000  0.000  0.000  0.000  0.000  0.000  0.000
    5  0.000  0.035  0.001  0.000  0.000  0.000  0.000  0.000  0.000  0.036
    6  0.001  0.009  0.018  0.000  0.000  0.000  0.000  0.000  0.000  0.028
    7  0.001  0.012  0.012  0.006  0.000  0.000  0.000  0.000  0.000  0.031
    8  0.000  0.035  0.001  0.000  0.000  0.000  0.000  0.000  0.000  0.036
    9  0.001  0.009  0.018  0.000  0.000  0.000  0.000  0.000  0.000  0.028
   10  0.001  0.012  0.012  0.006  0.000  0.000  0.000  0.000  0.000  0.031
tot    0.004  0.113  0.060  0.014  0.271  0.350  0.000  0.011  0.009  0.832

band    18 # energy   -5.97677842 # occ.  1.00000000

ion      s     py     pz     px    dxy    dyz    dz2    dxz  x2-y2    tot
    1  0.000  0.000  0.000  0.002  0.115  0.087  0.000  0.020  0.027  0.251
    2  0.000  0.000  0.000  0.002  0.115  0.087  0.000  0.020  0.027  0.251
    3  0.000  0.000  0.000  0.001  0.000  0.000  0.000  0.000  0.000  0.001
    4  0.000  0.000  0.000  0.001  0.000  0.000  0.000  0.000  0.000  0.001
    5  0.006  0.000  0.061  0.000  0.000  0.000  0.000  0.000  0.000  0.067
    6  0.005  0.000  0.051  0.000  0.000  0.000  0.000  0.000  0.000  0.057
    7  0.000  0.000  0.000  0.000  0.000  0.000  0.000  0.000  0.000  0.001
    8  0.006  0.000  0.061  0.000  0.000  0.000  0.000  0.000  0.000  0.067
    9  0.005  0.000  0.051  0.000  0.000  0.000  0.000  0.000  0.000  0.057
   10  0.000  0.000  0.000  0.000  0.000  0.000  0.000  0.000  0.000  0.001
tot    0.024  0.002  0.224  0.006  0.230  0.175  0.000  0.041  0.053  0.755

band    19 # energy   -5.97676172 # occ.  1.00000000

ion      s     py     pz     px    dxy    dyz    dz2    dxz  x2-y2    tot
    1  0.000  0.002  0.000  0.000  0.027  0.020  0.000  0.087  0.115  0.251
    2  0.000  0.002  0.000  0.000  0.027  0.020  0.000  0.087  0.115  0.251
    3  0.000  0.001  0.000  0.000  0.000  0.000  0.000  0.000  0.000  0.001
    4  0.000  0.001  0.000  0.000  0.000  0.000  0.000  0.000  0.000  0.001
    5  0.001  0.001  0.014  0.000  0.000  0.000  0.000  0.000  0.000  0.016
    6  0.003  0.000  0.024  0.000  0.000  0.000  0.000  0.000  0.000  0.027
    7  0.008  0.000  0.074  0.000  0.000  0.000  0.000  0.000  0.000  0.082
    8  0.001  0.001  0.014  0.000  0.000  0.000  0.000  0.000  0.000  0.016
    9  0.003  0.000  0.024  0.000  0.000  0.000  0.000  0.000  0.000  0.027
   10  0.008  0.000  0.074  0.000  0.000  0.000  0.000  0.000  0.000  0.082
tot    0.024  0.006  0.224  0.002  0.053  0.041  0.000  0.175  0.230  0.755

band    20 # energy   -4.98045827 # occ.  1.00000000

ion      s     py     pz     px    dxy    dyz    dz2    dxz  x2-y2    tot
    1  0.000  0.000  0.000  0.000  0.000  0.000  0.369  0.000  0.000  0.369
    2  0.000  0.000  0.000  0.000  0.000  0.000  0.369  0.000  0.000  0.369
    3  0.005  0.000  0.031  0.000  0.000  0.000  0.000  0.000  0.000  0.036
    4  0.005  0.000  0.031  0.000  0.000  0.000  0.000  0.000  0.000  0.036
    5  0.001  0.000  0.000  0.005  0.000  0.000  0.000  0.000  0.000  0.005
    6  0.001  0.003  0.000  0.001  0.000  0.000  0.000  0.000  0.000  0.005
    7  0.001  0.003  0.000  0.001  0.000  0.000  0.000  0.000  0.000  0.005
    8  0.001  0.000  0.000  0.005  0.000  0.000  0.000  0.000  0.000  0.005
    9  0.001  0.003  0.000  0.001  0.000  0.000  0.000  0.000  0.000  0.005
   10  0.001  0.003  0.000  0.001  0.000  0.000  0.000  0.000  0.000  0.005
tot    0.013  0.014  0.062  0.014  0.000  0.000  0.737  0.000  0.000  0.840

band    21 # energy   -4.92753709 # occ.  1.00000000

ion      s     py     pz     px    dxy    dyz    dz2    dxz  x2-y2    tot
    1  0.000  0.000  0.011  0.000  0.000  0.000  0.000  0.000  0.000  0.011
    2  0.000  0.000  0.011  0.000  0.000  0.000  0.000  0.000  0.000  0.011
    3  0.002  0.000  0.008  0.000  0.000  0.000  0.000  0.000  0.000  0.010
    4  0.002  0.000  0.008  0.000  0.000  0.000  0.000  0.000  0.000  0.010
    5  0.000  0.000  0.076  0.000  0.000  0.000  0.000  0.000  0.000  0.077
    6  0.000  0.000  0.076  0.000  0.000  0.000  0.000  0.000  0.000  0.077
    7  0.000  0.000  0.076  0.000  0.000  0.000  0.000  0.000  0.000  0.077
    8  0.000  0.000  0.076  0.000  0.000  0.000  0.000  0.000  0.000  0.077
    9  0.000  0.000  0.076  0.000  0.000  0.000  0.000  0.000  0.000  0.077
   10  0.000  0.000  0.076  0.000  0.000  0.000  0.000  0.000  0.000  0.077
tot    0.005  0.000  0.495  0.000  0.000  0.000  0.000  0.000  0.000  0.501

band    22 # energy   -4.72640156 # occ.  1.00000000

ion      s     py     pz     px    dxy    dyz    dz2    dxz  x2-y2    tot
    1  0.000  0.004  0.000  0.000  0.006  0.011  0.000  0.127  0.073  0.221
    2  0.000  0.004  0.000  0.000  0.006  0.011  0.000  0.127  0.073  0.221
    3  0.000  0.001  0.000  0.014  0.000  0.000  0.000  0.000  0.000  0.016
    4  0.000  0.001  0.000  0.014  0.000  0.000  0.000  0.000  0.000  0.016
    5  0.004  0.000  0.056  0.025  0.000  0.000  0.000  0.000  0.000  0.085
    6  0.002  0.008  0.030  0.006  0.000  0.000  0.000  0.000  0.000  0.047
    7  0.000  0.000  0.004  0.002  0.000  0.000  0.000  0.000  0.000  0.007
    8  0.004  0.000  0.056  0.025  0.000  0.000  0.000  0.000  0.000  0.085
    9  0.002  0.008  0.030  0.006  0.000  0.000  0.000  0.000  0.000  0.047
   10  0.000  0.000  0.004  0.002  0.000  0.000  0.000  0.000  0.000  0.007
tot    0.013  0.028  0.179  0.097  0.013  0.021  0.000  0.254  0.145  0.750

band    23 # energy   -4.72638988 # occ.  1.00000000

ion      s     py     pz     px    dxy    dyz    dz2    dxz  x2-y2    tot
    1  0.000  0.000  0.000  0.004  0.073  0.127  0.000  0.011  0.006  0.221
    2  0.000  0.000  0.000  0.004  0.073  0.127  0.000  0.011  0.006  0.221
    3  0.000  0.014  0.000  0.001  0.000  0.000  0.000  0.000  0.000  0.016
    4  0.000  0.014  0.000  0.001  0.000  0.000  0.000  0.000  0.000  0.016
    5  0.000  0.001  0.004  0.002  0.000  0.000  0.000  0.000  0.000  0.007
    6  0.002  0.012  0.030  0.001  0.000  0.000  0.000  0.000  0.000  0.046
    7  0.004  0.020  0.056  0.005  0.000  0.000  0.000  0.000  0.000  0.086
    8  0.000  0.001  0.004  0.002  0.000  0.000  0.000  0.000  0.000  0.007
    9  0.002  0.012  0.030  0.001  0.000  0.000  0.000  0.000  0.000  0.046
   10  0.004  0.020  0.056  0.005  0.000  0.000  0.000  0.000  0.000  0.086
tot    0.013  0.097  0.179  0.028  0.145  0.254  0.000  0.021  0.013  0.750

band    24 # energy   -4.54633191 # occ.  1.00000000

ion      s     py     pz     px    dxy    dyz    dz2    dxz  x2-y2    tot
    1  0.000  0.004  0.000  0.008  0.112  0.051  0.000  0.023  0.051  0.250
    2  0.000  0.004  0.000  0.008  0.112  0.051  0.000  0.023  0.051  0.250
    3  0.000  0.000  0.000  0.000  0.000  0.000  0.000  0.000  0.000  0.000
    4  0.000  0.000  0.000  0.000  0.000  0.000  0.000  0.000  0.000  0.000
    5  0.001  0.007  0.022  0.002  0.000  0.000  0.000  0.000  0.000  0.031
    6  0.002  0.003  0.066  0.002  0.000  0.000  0.000  0.000  0.000  0.074
    7  0.000  0.005  0.012  0.004  0.000  0.000  0.000  0.000  0.000  0.022
    8  0.001  0.007  0.022  0.002  0.000  0.000  0.000  0.000  0.000  0.031
    9  0.002  0.003  0.066  0.002  0.000  0.000  0.000  0.000  0.000  0.074
   10  0.000  0.005  0.012  0.004  0.000  0.000  0.000  0.000  0.000  0.022
tot    0.007  0.039  0.201  0.032  0.225  0.103  0.000  0.045  0.102  0.753

band    25 # energy   -4.54632236 # occ.  1.00000000

ion      s     py     pz     px    dxy    dyz    dz2    dxz  x2-y2    tot
    1  0.000  0.008  0.000  0.004  0.051  0.023  0.000  0.051  0.113  0.250
    2  0.000  0.008  0.000  0.004  0.051  0.023  0.000  0.051  0.113  0.250
    3  0.000  0.000  0.000  0.000  0.000  0.000  0.000  0.000  0.000  0.000
    4  0.000  0.000  0.000  0.000  0.000  0.000  0.000  0.000  0.000  0.000
    5  0.002  0.003  0.045  0.004  0.000  0.000  0.000  0.000  0.000  0.054
    6  0.000  0.003  0.000  0.007  0.000  0.000  0.000  0.000  0.000  0.010
    7  0.002  0.001  0.055  0.005  0.000  0.000  0.000  0.000  0.000  0.063
    8  0.002  0.003  0.045  0.004  0.000  0.000  0.000  0.000  0.000  0.054
    9  0.000  0.003  0.000  0.007  0.000  0.000  0.000  0.000  0.000  0.010
   10  0.002  0.001  0.055  0.005  0.000  0.000  0.000  0.000  0.000  0.063
tot    0.007  0.032  0.201  0.039  0.101  0.045  0.000  0.103  0.225  0.753

band    26 # energy   -4.43755978 # occ.  1.00000000

ion      s     py     pz     px    dxy    dyz    dz2    dxz  x2-y2    tot
    1  0.012  0.000  0.000  0.000  0.000  0.000  0.449  0.000  0.000  0.461
    2  0.012  0.000  0.000  0.000  0.000  0.000  0.449  0.000  0.000  0.461
    3  0.000  0.000  0.000  0.000  0.000  0.000  0.000  0.000  0.000  0.000
    4  0.000  0.000  0.000  0.000  0.000  0.000  0.000  0.000  0.000  0.000
    5  0.000  0.003  0.000  0.000  0.000  0.000  0.000  0.000  0.000  0.003
    6  0.000  0.001  0.000  0.002  0.000  0.000  0.000  0.000  0.000  0.003
    7  0.000  0.001  0.000  0.002  0.000  0.000  0.000  0.000  0.000  0.003
    8  0.000  0.003  0.000  0.000  0.000  0.000  0.000  0.000  0.000  0.003
    9  0.000  0.001  0.000  0.002  0.000  0.000  0.000  0.000  0.000  0.003
   10  0.000  0.001  0.000  0.002  0.000  0.000  0.000  0.000  0.000  0.003
tot    0.024  0.010  0.000  0.010  0.000  0.000  0.898  0.000  0.000  0.942

band    27 # energy   -4.37094066 # occ.  1.00000000

ion      s     py     pz     px    dxy    dyz    dz2    dxz  x2-y2    tot
    1  0.000  0.000  0.000  0.000  0.243  0.151  0.000  0.011  0.017  0.422
    2  0.000  0.000  0.000  0.000  0.243  0.151  0.000  0.011  0.017  0.422
    3  0.000  0.001  0.000  0.009  0.000  0.000  0.000  0.000  0.000  0.009
    4  0.000  0.001  0.000  0.009  0.000  0.000  0.000  0.000  0.000  0.009
    5  0.003  0.000  0.005  0.010  0.000  0.000  0.000  0.000  0.000  0.019
    6  0.000  0.001  0.000  0.000  0.000  0.000  0.000  0.000  0.000  0.001
    7  0.001  0.004  0.003  0.001  0.000  0.000  0.000  0.000  0.000  0.010
    8  0.003  0.000  0.005  0.010  0.000  0.000  0.000  0.000  0.000  0.019
    9  0.000  0.001  0.000  0.000  0.000  0.000  0.000  0.000  0.000  0.001
   10  0.001  0.004  0.003  0.001  0.000  0.000  0.000  0.000  0.000  0.010
tot    0.009  0.012  0.017  0.041  0.486  0.302  0.000  0.021  0.035  0.923

band    28 # energy   -4.37093655 # occ.  1.00000000

ion      s     py     pz     px    dxy    dyz    dz2    dxz  x2-y2    tot
    1  0.000  0.000  0.000  0.000  0.017  0.011  0.000  0.151  0.243  0.422
    2  0.000  0.000  0.000  0.000  0.017  0.011  0.000  0.151  0.243  0.422
    3  0.000  0.009  0.000  0.001  0.000  0.000  0.000  0.000  0.000  0.009
    4  0.000  0.009  0.000  0.001  0.000  0.000  0.000  0.000  0.000  0.009
    5  0.000  0.000  0.000  0.001  0.000  0.000  0.000  0.000  0.000  0.001
    6  0.003  0.008  0.005  0.003  0.000  0.000  0.000  0.000  0.000  0.018
    7  0.001  0.004  0.003  0.002  0.000  0.000  0.000  0.000  0.000  0.010
    8  0.000  0.000  0.000  0.001  0.000  0.000  0.000  0.000  0.000  0.001
    9  0.003  0.008  0.005  0.003  0.000  0.000  0.000  0.000  0.000  0.018
   10  0.001  0.004  0.003  0.002  0.000  0.000  0.000  0.000  0.000  0.010
tot    0.009  0.041  0.017  0.012  0.035  0.021  0.000  0.302  0.486  0.923

band    29 # energy   -3.52238418 # occ.  1.00000000

ion      s     py     pz     px    dxy    dyz    dz2    dxz  x2-y2    tot
    1  0.000  0.002  0.000  0.018  0.022  0.006  0.000  0.001  0.002  0.050
    2  0.000  0.002  0.000  0.018  0.022  0.006  0.000  0.001  0.002  0.050
    3  0.000  0.001  0.000  0.006  0.000  0.000  0.000  0.000  0.000  0.007
    4  0.000  0.001  0.000  0.006  0.000  0.000  0.000  0.000  0.000  0.007
    5  0.003  0.010  0.013  0.055  0.000  0.000  0.000  0.000  0.000  0.081
    6  0.000  0.013  0.001  0.092  0.000  0.000  0.000  0.000  0.000  0.106
    7  0.002  0.002  0.008  0.079  0.000  0.000  0.000  0.000  0.000  0.091
    8  0.003  0.010  0.013  0.055  0.000  0.000  0.000  0.000  0.000  0.081
    9  0.000  0.013  0.001  0.092  0.000  0.000  0.000  0.000  0.000  0.106
   10  0.002  0.002  0.008  0.079  0.000  0.000  0.000  0.000  0.000  0.091
tot    0.008  0.055  0.044  0.501  0.044  0.012  0.000  0.001  0.005  0.670

band    30 # energy   -3.52235590 # occ.  1.00000000

ion      s     py     pz     px    dxy    dyz    dz2    dxz  x2-y2    tot
    1  0.000  0.018  0.000  0.002  0.002  0.001  0.000  0.006  0.022  0.050
    2  0.000  0.018  0.000  0.002  0.002  0.001  0.000  0.006  0.022  0.050
    3  0.000  0.006  0.000  0.001  0.000  0.000  0.000  0.000  0.000  0.007
    4  0.000  0.006  0.000  0.001  0.000  0.000  0.000  0.000  0.000  0.007
    5  0.000  0.097  0.001  0.005  0.000  0.000  0.000  0.000  0.000  0.104
    6  0.003  0.059  0.014  0.004  0.000  0.000  0.000  0.000  0.000  0.079
    7  0.001  0.070  0.007  0.016  0.000  0.000  0.000  0.000  0.000  0.094
    8  0.000  0.097  0.001  0.005  0.000  0.000  0.000  0.000  0.000  0.104
    9  0.003  0.059  0.014  0.004  0.000  0.000  0.000  0.000  0.000  0.079
   10  0.001  0.070  0.007  0.016  0.000  0.000  0.000  0.000  0.000  0.094
tot    0.008  0.501  0.044  0.055  0.005  0.001  0.000  0.012  0.044  0.670

band    31 # energy   -3.34183208 # occ.  1.00000000

ion      s     py     pz     px    dxy    dyz    dz2    dxz  x2-y2    tot
    1  0.012  0.000  0.000  0.000  0.000  0.000  0.078  0.000  0.000  0.090
    2  0.012  0.000  0.000  0.000  0.000  0.000  0.078  0.000  0.000  0.090
    3  0.002  0.000  0.088  0.000  0.000  0.000  0.000  0.000  0.000  0.090
    4  0.002  0.000  0.088  0.000  0.000  0.000  0.000  0.000  0.000  0.090
    5  0.000  0.000  0.023  0.016  0.000  0.000  0.000  0.000  0.000  0.038
    6  0.000  0.012  0.023  0.004  0.000  0.000  0.000  0.000  0.000  0.038
    7  0.000  0.012  0.023  0.004  0.000  0.000  0.000  0.000  0.000  0.038
    8  0.000  0.000  0.023  0.016  0.000  0.000  0.000  0.000  0.000  0.038
    9  0.000  0.012  0.023  0.004  0.000  0.000  0.000  0.000  0.000  0.038