<?xml version="1.0" encoding="ISO-8859-1"?>
<modeling>
 <generator>
  <i name="program" type="string">vasp </i>
  <i name="version" type="string">5.4.4.18Apr17-6-g9f103f2a35  </i>
  <i name="subversion" type="string">(build May  1 2020 15:48:39) complex            parallel </i>
  <i name="platform" type="string">LinuxGNU </i>
  <i name="date" type="string">2020 06 21 </i>
  <i name="time" type="string">16:57:47 </i>
 </generator>
 <incar>
  <i type="int" name="ISTART">     1</i>
  <i type="string" name="PREC">accurate</i>
  <i type="string" name="ALGO"> Normal</i>
  <i type="int" name="ISPIN">     2</i>
  <i name="AMIN">      0.01000000</i>
  <i type="int" name="NELM">   400</i>
  <i type="int" name="IBRION">     2</i>
  <i name="EDIFF">      0.00010000</i>
  <i type="int" name="NSW">    99</i>
  <i type="int" name="ISIF">     3</i>
  <i name="ENCUT">    520.00000000</i>
  <v name="MAGMOM">      1.26000000      1.26000000      0.60000000      0.60000000      0.60000000      0.60000000      0.60000000      0.60000000      0.60000000      0.60000000</v>
  <i type="string" name="LREAL"> Auto</i>
  <i type="int" name="ISMEAR">    -5</i>
  <i name="SIGMA">      0.05000000</i>
  <i type="logical" name="LWAVE"> F  </i>
  <i type="int" name="LORBIT">    11</i>
  <v type="int" name="KPOINT_BSE">    -1     0     0     0</v>
  <i type="int" name="NELM">   400</i>
  <i type="string" name="GGA"> Bo</i>
  <i name="PARAM1">      0.18333333</i>
  <i name="PARAM2">      0.22000000</i>
  <i type="logical" name="LUSE_VDW"> T  </i>
  <i name="AGGAC">      0.00000000</i>
 </incar>
 <structure name="primitive_cell" >
  <crystal>
   <varray name="basis" >
    <v>       6.90777700      -0.00000000       0.00000000 </v>
    <v>       3.45388800       5.98231000       0.00000000 </v>
    <v>       0.00000000       0.00000000      23.44458800 </v>
   </varray>
   <i name="volume">    968.83501932 </i>
   <varray name="rec_basis" >
    <v>       0.14476437      -0.08357974       0.00000000 </v>
    <v>       0.00000000       0.16715951      -0.00000000 </v>
    <v>      -0.00000000       0.00000000       0.04265377 </v>
   </varray>
  </crystal>
  <varray name="positions" >
   <v>       0.33333300       0.33333300       0.49992500 </v>
   <v>       0.00042000       0.37322400      -0.42624800 </v>
   <v>      -0.37364300       0.00042000      -0.42624800 </v>
   <v>       0.37322400      -0.37364300      -0.42624800 </v>
   <v>       0.37364300      -0.00042000       0.42624800 </v>
   <v>      -0.37322400       0.37364300       0.42624800 </v>
   <v>      -0.00042000      -0.37322400       0.42624800 </v>
   <v>      -0.33333300      -0.33333300      -0.49992500 </v>
   <v>       0.00000000       0.00000000       0.44821600 </v>
   <v>       0.00000000       0.00000000      -0.44821600 </v>
  </varray>
 </structure>
 <varray name="primitive_index" >
  <v type="int" >        1 </v>
  <v type="int" >        6 </v>
  <v type="int" >        5 </v>
  <v type="int" >        7 </v>
  <v type="int" >        8 </v>
  <v type="int" >       10 </v>
  <v type="int" >        9 </v>
  <v type="int" >        2 </v>
  <v type="int" >        3 </v>
  <v type="int" >        4 </v>
 </varray>
 <kpoints>
  <generation param="Gamma">
   <v type="int" name="divisions">       5        5        1 </v>
   <v name="usershift">      0.00000000       0.00000000       0.00000000 </v>
   <v name="genvec1">      0.20000000       0.00000000       0.00000000 </v>
   <v name="genvec2">      0.00000000       0.20000000       0.00000000 </v>
   <v name="genvec3">      0.00000000       0.00000000       1.00000000 </v>
   <v name="shift">      0.00000000       0.00000000       0.00000000 </v>
  </generation>
  <varray name="kpointlist" >
   <v>       0.00000000       0.00000000       0.00000000 </v>
   <v>       0.20000000       0.00000000       0.00000000 </v>
   <v>       0.40000000       0.00000000       0.00000000 </v>
   <v>       0.40000000       0.20000000       0.00000000 </v>
   <v>      -0.40000000       0.20000000       0.00000000 </v>
  </varray>
  <varray name="weights" >
   <v>       0.04000000 </v>
   <v>       0.24000000 </v>
   <v>       0.24000000 </v>
   <v>       0.24000000 </v>
   <v>       0.24000000 </v>
  </varray>
  <varray name="tetrahedronlist"  type="int" >
   <v type="int" >        6        1        1        2        2 </v>
   <v type="int" >       12        1        2        2        2 </v>
   <v type="int" >       12        2        2        3        4 </v>
   <v type="int" >       12        2        2        2        4 </v>
   <v type="int" >       12        2        3        3        4 </v>
   <v type="int" >       12        2        3        4        4 </v>
   <v type="int" >        6        2        2        4        4 </v>
   <v type="int" >       12        3        3        3        5 </v>
   <v type="int" >       12        3        3        4        5 </v>
   <v type="int" >       12        3        4        4        5 </v>
   <v type="int" >        6        3        3        5        5 </v>
   <v type="int" >       12        3        4        5        5 </v>
   <v type="int" >        6        4        4        5        5 </v>
   <v type="int" >       12        4        5        5        5 </v>
   <v type="int" >        6        5        5        5        5 </v>
  </varray>
  <i name="volumeweight">      0.00666667 </i>
 </kpoints>
 <parameters>
  <separator name="general" >
   <i type="string" name="SYSTEM">unknown system</i>
   <i type="logical" name="LCOMPAT"> F  </i>
  </separator>
  <separator name="electronic" >
   <i type="string" name="PREC">accura</i>
   <i name="ENMAX">    520.00000000</i>
   <i name="ENAUG">    544.56500000</i>
   <i name="EDIFF">      0.00010000</i>
   <i type="int" name="IALGO">    38</i>
   <i type="int" name="IWAVPR">    11</i>
   <i type="int" name="NBANDS">    48</i>
   <i name="NELECT">     64.00000000</i>
   <i type="int" name="TURBO">     0</i>
   <i type="int" name="IRESTART">     0</i>
   <i type="int" name="NREBOOT">     0</i>
   <i type="int" name="NMIN">     0</i>
   <i name="EREF">      0.00000000</i>
   <separator name="electronic smearing" >
    <i type="int" name="ISMEAR">    -5</i>
    <i name="SIGMA">      0.05000000</i>
    <i name="KSPACING">      0.50000000</i>
    <i type="logical" name="KGAMMA"> T  </i>
   </separator>
   <separator name="electronic projectors" >
    <i type="logical" name="LREAL"> T  </i>
    <v name="ROPT">     -0.00025000     -0.00025000     -0.00025000</v>
    <i type="int" name="LMAXPAW">  -100</i>
    <i type="int" name="LMAXMIX">     2</i>
    <i type="logical" name="NLSPLINE"> F  </i>
   </separator>
   <separator name="electronic startup" >
    <i type="int" name="ISTART">     0</i>
    <i type="int" name="ICHARG">     2</i>
    <i type="int" name="INIWAV">     1</i>
   </separator>
   <separator name="electronic spin" >
    <i type="int" name="ISPIN">     2</i>
    <i type="logical" name="LNONCOLLINEAR"> F  </i>
    <v name="MAGMOM">      1.26000000      1.26000000      0.60000000      0.60000000      0.60000000      0.60000000      0.60000000      0.60000000      0.60000000      0.60000000</v>
    <i name="NUPDOWN">     -1.00000000</i>
    <i type="logical" name="LSORBIT"> F  </i>
    <v name="SAXIS">      0.00000000      0.00000000      1.00000000</v>
    <i type="logical" name="LSPIRAL"> F  </i>
    <v name="QSPIRAL">      0.00000000      0.00000000      0.00000000</v>
    <i type="logical" name="LZEROZ"> F  </i>
   </separator>
   <separator name="electronic exchange-correlation" >
    <i type="logical" name="LASPH"> F  </i>
    <i type="logical" name="LMETAGGA"> F  </i>
   </separator>
   <separator name="electronic convergence" >
    <i type="int" name="NELM">   400</i>
    <i type="int" name="NELMDL">     0</i>
    <i type="int" name="NELMIN">     2</i>
    <i name="ENINI">    520.00000000</i>
    <separator name="electronic convergence detail" >
     <i type="logical" name="LDIAG"> T  </i>
     <i type="logical" name="LSUBROT"> F  </i>
     <i name="WEIMIN">      0.00100000</i>
     <i name="EBREAK">      0.00000052</i>
     <i name="DEPER">      0.30000000</i>
     <i type="int" name="NRMM">     4</i>
     <i name="TIME">      0.40000000</i>
    </separator>
   </separator>
   <separator name="electronic mixer" >
    <i name="AMIX">      0.40000000</i>
    <i name="BMIX">      1.00000000</i>
    <i name="AMIN">      0.01000000</i>
    <i name="AMIX_MAG">      1.60000000</i>
    <i name="BMIX_MAG">      1.00000000</i>
    <separator name="electronic mixer details" >
     <i type="int" name="IMIX">     4</i>
     <i type="logical" name="MIXFIRST"> F  </i>
     <i type="int" name="MAXMIX">   -45</i>
     <i name="WC">    100.00000000</i>
     <i type="int" name="INIMIX">     1</i>
     <i type="int" name="MIXPRE">     1</i>
     <i type="int" name="MREMOVE">     5</i>
    </separator>
   </separator>
   <separator name="electronic dipolcorrection" >
    <i type="logical" name="LDIPOL"> F  </i>
    <i type="logical" name="LMONO"> F  </i>
    <i type="int" name="IDIPOL">     0</i>
    <i name="EPSILON">      1.00000000</i>
    <v name="DIPOL">   -100.00000000   -100.00000000   -100.00000000</v>
    <i name="EFIELD">      0.00000000</i>
   </separator>
  </separator>
  <separator name="grids" >
   <i type="int" name="NGX">    54</i>
   <i type="int" name="NGY">    54</i>
   <i type="int" name="NGZ">   180</i>
   <i type="int" name="NGXF">   108</i>
   <i type="int" name="NGYF">   108</i>
   <i type="int" name="NGZF">   360</i>
   <i type="logical" name="ADDGRID"> F  </i>
  </separator>
  <separator name="ionic" >
   <i type="int" name="NSW">    99</i>
   <i type="int" name="IBRION">     2</i>
   <i type="int" name="MDALGO">     0</i>
   <i type="int" name="ISIF">     3</i>
   <i name="PSTRESS">      0.00000000</i>
   <i name="EDIFFG">      0.00100000</i>
   <i type="int" name="NFREE">     1</i>
   <i name="POTIM">      0.50000000</i>
   <i name="SMASS">     -3.00000000</i>
   <i name="SCALEE">      1.00000000</i>
  </separator>
  <separator name="ionic md" >
   <i name="TEBEG">      0.00010000</i>
   <i name="TEEND">      0.00010000</i>
   <i type="int" name="NBLOCK">     1</i>
   <i type="int" name="KBLOCK">    99</i>
   <i type="int" name="NPACO">   256</i>
   <i name="APACO">     16.00000000</i>
  </separator>
  <separator name="symmetry" >
   <i type="int" name="ISYM">     2</i>
   <i name="SYMPREC">      0.00001000</i>
  </separator>
  <separator name="dos" >
   <i type="int" name="LORBIT">    11</i>
   <v name="RWIGS">     -1.00000000     -1.00000000     -1.00000000</v>
   <i type="int" name="NEDOS">   301</i>
   <i name="EMIN">     10.00000000</i>
   <i name="EMAX">    -10.00000000</i>
   <i name="EFERMI">      0.00000000</i>
  </separator>
  <separator name="writing" >
   <i type="int" name="NWRITE">     2</i>
   <i type="logical" name="LWAVE"> F  </i>
   <i type="logical" name="LDOWNSAMPLE"> F  </i>
   <i type="logical" name="LCHARG"> T  </i>
   <i type="logical" name="LPARD"> F  </i>
   <i type="logical" name="LVTOT"> F  </i>
   <i type="logical" name="LVHAR"> F  </i>
   <i type="logical" name="LELF"> F  </i>
   <i type="logical" name="LOPTICS"> F  </i>
   <v name="STM">      0.00000000      0.00000000      0.00000000      0.00000000      0.00000000      0.00000000      0.00000000</v>
  </separator>
  <separator name="performance" >
   <i type="int" name="NPAR">    16</i>
   <i type="int" name="NSIM">     4</i>
   <i type="int" name="NBLK">    -1</i>
   <i type="logical" name="LPLANE"> T  </i>
   <i type="logical" name="LSCALAPACK"> T  </i>
   <i type="logical" name="LSCAAWARE"> F  </i>
   <i type="logical" name="LSCALU"> F  </i>
   <i type="logical" name="LASYNC"> F  </i>
   <i type="logical" name="LORBITALREAL"> F  </i>
  </separator>
  <separator name="miscellaneous" >
   <i type="int" name="IDIOT">     3</i>
   <i type="int" name="ISPECIAL">     0</i>
   <i type="logical" name="LMUSIC"> F  </i>
   <v name="POMASS">     58.69000000     28.08500000     32.06600000</v>
   <v name="DARWINR">      0.00000000      0.00000000      0.00000000</v>
   <v name="DARWINV">      1.00000000      1.00000000      1.00000000</v>
   <i type="logical" name="LCORR"> T  </i>
  </separator>
  <i type="logical" name="GGA_COMPAT"> T  </i>
  <i type="logical" name="LBERRY"> F  </i>
  <i type="int" name="ICORELEVEL">     0</i>
  <i type="logical" name="LDAU"> F  </i>
  <i type="int" name="I_CONSTRAINED_M">     0</i>
  <separator name="electronic exchange-correlation" >
   <i type="string" name="GGA">BO</i>
   <i type="int" name="VOSKOWN">     0</i>
   <i type="logical" name="LHFCALC"> F  </i>
   <i type="string" name="PRECFOCK"></i>
   <i type="logical" name="LSYMGRAD"> F  </i>
   <i type="logical" name="LHFONE"> F  </i>
   <i type="logical" name="LRHFCALC"> F  </i>
   <i type="logical" name="LTHOMAS"> F  </i>
   <i type="logical" name="LMODELHF"> F  </i>
   <i name="ENCUT4O">     -1.00000000</i>
   <i type="int" name="EXXOEP">     0</i>
   <i type="int" name="FOURORBIT">     0</i>
   <i name="AEXX">      0.00000000</i>
   <i name="HFALPHA">      0.00000000</i>
   <i name="MCALPHA">      0.00000000</i>
   <i name="ALDAX">      1.00000000</i>
   <i name="AGGAX">      1.00000000</i>
   <i name="ALDAC">      1.00000000</i>
   <i name="AGGAC">      0.00000000</i>
   <i type="int" name="NKREDX">     1</i>
   <i type="int" name="NKREDY">     1</i>
   <i type="int" name="NKREDZ">     1</i>
   <i type="logical" name="SHIFTRED"> F  </i>
   <i type="logical" name="ODDONLY"> F  </i>
   <i type="logical" name="EVENONLY"> F  </i>
   <i type="int" name="LMAXFOCK">     0</i>
   <i type="int" name="NMAXFOCKAE">     0</i>
   <i type="logical" name="LFOCKAEDFT"> F  </i>
   <i name="HFSCREEN">      0.00000000</i>
   <i name="HFSCREENC">      0.00000000</i>
   <i type="int" name="NBANDSGWLOW">     0</i>
  </separator>
  <separator name="vdW DFT" >
   <i type="logical" name="LUSE_VDW"> T  </i>
   <i name="Zab_VDW">     -0.84910000</i>
   <i name="PARAM1">      0.18333333</i>
   <i name="PARAM2">      0.22000000</i>
   <i name="PARAM3">      0.00000000</i>
  </separator>
  <separator name="model GW" >
   <i type="int" name="MODEL_GW">     0</i>
   <i name="MODEL_EPS0">     58.13010116</i>
   <i name="MODEL_ALPHA">      1.00000000</i>
  </separator>
  <separator name="linear response parameters" >
   <i type="logical" name="LEPSILON"> F  </i>
   <i type="logical" name="LRPA"> F  </i>
   <i type="logical" name="LNABLA"> F  </i>
   <i type="logical" name="LVEL"> F  </i>
   <i type="int" name="KINTER">     0</i>
   <i name="CSHIFT">      0.10000000</i>
   <i name="OMEGAMAX">     -1.00000000</i>
   <i name="DEG_THRESHOLD">      0.00200000</i>
   <i name="RTIME">     -0.10000000</i>
   <i name="WPLASMAI">      0.00000000</i>
   <v name="DFIELD">      0.00000000      0.00000000      0.00000000</v>
   <v name="WPLASMA">      0.00000000      0.00000000      0.00000000      0.00000000      0.00000000      0.00000000      0.00000000      0.00000000      0.00000000</v>
  </separator>
  <separator name="orbital magnetization" >
   <i type="logical" name="NUCIND"> F  </i>
   <v name="MAGPOS">      0.00000000      0.00000000      0.00000000</v>
   <i type="logical" name="LNICSALL"> T  </i>
   <i type="logical" name="ORBITALMAG"> F  </i>
   <i type="logical" name="LMAGBLOCH"> F  </i>
   <i type="logical" name="LCHIMAG"> F  </i>
   <i type="logical" name="LGAUGE"> T  </i>
   <i type="int" name="MAGATOM">     0</i>
   <v name="MAGDIPOL">      0.00000000      0.00000000      0.00000000</v>
   <v name="AVECCONST">      0.00000000      0.00000000      0.00000000</v>
  </separator>
  <separator name="response functions" >
   <i type="logical" name="LADDER"> F  </i>
   <i type="logical" name="LRPAFORCE"> F  </i>
   <i type="logical" name="LFXC"> F  </i>
   <i type="logical" name="LHARTREE"> T  </i>
   <i type="int" name="IBSE">     0</i>
   <v type="int" name="KPOINT">    -1     0     0     0</v>
   <i type="logical" name="LTCTE"> F  </i>
   <i type="logical" name="LTETE"> F  </i>
   <i type="logical" name="LTRIPLET"> F  </i>
   <i type="logical" name="LFXCEPS"> F  </i>
   <i type="logical" name="LFXHEG"> F  </i>
   <i type="int" name="NATURALO">     2</i>
   <i type="logical" name="L2ORDER"> F  </i>
   <i type="logical" name="LMP2LT"> F  </i>
   <i type="logical" name="LUSEW"> F  </i>
   <i name="ENCUTGW">     -2.00000000</i>
   <i name="ENCUTGWSOFT">     -2.00000000</i>
   <i name="ENCUTLF">     -1.00000000</i>
   <i type="int" name="LMAXMP2">    -1</i>
   <i name="SCISSOR">      0.00000000</i>
   <i type="int" name="NOMEGA">     0</i>
   <i type="int" name="NOMEGAR">     0</i>
   <i type="int" name="NBANDSGW">    -1</i>
   <i type="int" name="NBANDSO">    -1</i>
   <i type="int" name="NBANDSV">    -1</i>
   <i type="int" name="NELM">   400</i>
   <i type="int" name="NELMHF">     1</i>
   <i type="int" name="DIM">     3</i>
   <i type="int" name="ANTIRES">     0</i>
   <i name="OMEGAMAX">    -30.00000000</i>
   <i name="OMEGAMIN">    -30.00000000</i>
   <i name="OMEGATL">   -200.00000000</i>
   <i type="int" name="OMEGAGRID">   140</i>
   <i name="CSHIFT">     -0.10000000</i>
   <i type="logical" name="SELFENERGY"> F  </i>
   <i type="logical" name="LSPECTRAL"> F  </i>
   <i type="logical" name="LSPECTRALGW"> F  </i>
   <i type="logical" name="LSINGLES"> F  </i>
   <i type="logical" name="LFERMIGW"> F  </i>
   <i type="logical" name="ODDONLYGW"> F  </i>
   <i type="logical" name="EVENONLYGW"> F  </i>
   <i type="int" name="NKREDLFX">     1</i>
   <i type="int" name="NKREDLFY">     1</i>
   <i type="int" name="NKREDLFZ">     1</i>
   <i type="int" name="MAXMEM">  2800</i>
   <i type="int" name="TELESCOPE">     0</i>
   <i type="int" name="TAUPAR">     1</i>
   <i type="int" name="OMEGAPAR">    -1</i>
   <i name="LAMBDA">      1.00000000</i>
  </separator>
  <separator name="External order field" >
   <i name="OFIELD_KAPPA">      0.00000000</i>
   <v name="OFIELD_K">      0.00000000      0.00000000      0.00000000</v>
   <i name="OFIELD_Q6_NEAR">      0.00000000</i>
   <i name="OFIELD_Q6_FAR">      0.00000000</i>
   <i name="OFIELD_A">      0.00000000</i>
  </separator>
 </parameters>
 <atominfo>
  <atoms>      10 </atoms>
  <types>       3 </types>
  <array name="atoms" >
   <dimension dim="1">ion</dimension>
   <field type="string">element</field>
   <field type="int">atomtype</field>
   <set>
    <rc><c>Ni</c><c>   1</c></rc>
    <rc><c>Ni</c><c>   1</c></rc>
    <rc><c>Si</c><c>   2</c></rc>
    <rc><c>Si</c><c>   2</c></rc>
    <rc><c>S </c><c>   3</c></rc>
    <rc><c>S </c><c>   3</c></rc>
    <rc><c>S </c><c>   3</c></rc>
    <rc><c>S </c><c>   3</c></rc>
    <rc><c>S </c><c>   3</c></rc>
    <rc><c>S </c><c>   3</c></rc>
   </set>
  </array>
  <array name="atomtypes" >
   <dimension dim="1">type</dimension>
   <field type="int">atomspertype</field>
   <field type="string">element</field>
   <field>mass</field>
   <field>valence</field>
   <field type="string">pseudopotential</field>
   <set>
    <rc><c>   2</c><c>Ni</c><c>     58.69000000</c><c>     10.00000000</c><c> PAW_PBE Ni 06Sep2000                   </c></rc>
    <rc><c>   2</c><c>Si</c><c>     28.08500000</c><c>      4.00000000</c><c> PAW_PBE Si 05Jan2001                   </c></rc>
    <rc><c>   6</c><c>S </c><c>     32.06600000</c><c>      6.00000000</c><c>  PAW_PBE S 17Jan2003                   </c></rc>
   </set>
  </array>
 </atominfo>
 <structure name="initialpos" >
  <crystal>
   <varray name="basis" >
    <v>       6.90777700      -0.00000000       0.00000000 </v>
    <v>       3.45388800       5.98231000       0.00000000 </v>
    <v>       0.00000000       0.00000000      23.44458800 </v>
   </varray>
   <i name="volume">    968.83501932 </i>
   <varray name="rec_basis" >
    <v>       0.14476437      -0.08357974       0.00000000 </v>
    <v>       0.00000000       0.16715951      -0.00000000 </v>
    <v>      -0.00000000       0.00000000       0.04265377 </v>
   </varray>
  </crystal>
  <varray name="positions" >
   <v>       0.33333300       0.33333300       0.49992500 </v>
   <v>       0.66666700       0.66666700       0.50007500 </v>
   <v>       0.00000000       0.00000000       0.44821600 </v>
   <v>       0.00000000       0.00000000       0.55178400 </v>
   <v>       0.62635700       0.00042000       0.57375200 </v>
   <v>       0.00042000       0.37322400       0.57375200 </v>
   <v>       0.37322400       0.62635700       0.57375200 </v>
   <v>       0.37364300       0.99958000       0.42624800 </v>
   <v>       0.99958000       0.62677600       0.42624800 </v>
   <v>       0.62677600       0.37364300       0.42624800 </v>
  </varray>
  <varray name="selective"  type="logical" >
   <v type="logical" >  T  T  T </v>
   <v type="logical" >  T  T  T </v>
   <v type="logical" >  T  T  T </v>
   <v type="logical" >  T  T  T </v>
   <v type="logical" >  T  T  T </v>
   <v type="logical" >  T  T  T </v>
   <v type="logical" >  T  T  T </v>
   <v type="logical" >  T  T  T </v>
   <v type="logical" >  T  T  T </v>
   <v type="logical" >  T  T  T </v>
  </varray>
  <nose>
   <v>      -3.00000000       0.00000000       0.00010000       0.00010000 </v>
  </nose>
 </structure>
 <calculation>
  <scstep>
   <time name="dav">   22.16   22.53</time>
   <time name="total">   74.56   75.76</time>
   <energy>
    <i name="alphaZ">     24.40282534 </i>
    <i name="ewald">   8065.03639907 </i>
    <i name="hartreedc"> -11705.16642855 </i>
    <i name="XCdc">    107.00575666 </i>
    <i name="pawpsdc">   2401.94230808 </i>
    <i name="pawaedc">  -2475.68796913 </i>
    <i name="eentropy">      0.00000000 </i>
    <i name="bandstr">    -46.83897487 </i>
    <i name="atom">   4037.76956432 </i>
    <i name="e_fr_energy">    408.46348092 </i>
    <i name="e_wo_entrp">    408.46348092 </i>
    <i name="e_0_energy">    408.46348092 </i>
   </energy>
  </scstep>
  <scstep>
   <time name="dav">   31.81   32.95</time>
   <time name="total">   31.82   32.95</time>
   <energy>
    <i name="e_fr_energy">     30.66293819 </i>
    <i name="e_wo_entrp">     30.66293819 </i>
    <i name="e_0_energy">     30.66293819 </i>
   </energy>
  </scstep>
  <scstep>
   <time name="dav">   28.75   28.94</time>
   <time name="total">   28.75   28.94</time>
   <energy>
    <i name="e_fr_energy">    -40.97285937 </i>
    <i name="e_wo_entrp">    -40.97285937 </i>
    <i name="e_0_energy">    -40.97285937 </i>
   </energy>
  </scstep>
  <scstep>
   <time name="dav">   26.70   27.08</time>
   <time name="total">   26.70   27.09</time>
   <energy>
    <i name="e_fr_energy">    -43.83687744 </i>
    <i name="e_wo_entrp">    -43.83687744 </i>
    <i name="e_0_energy">    -43.83687744 </i>
   </energy>
  </scstep>
  <scstep>
   <time name="dav">   30.66   30.75</time>
   <time name="total">   32.82   32.91</time>
   <energy>
    <i name="e_fr_energy">    -43.91893837 </i>
    <i name="e_wo_entrp">    -43.91893837 </i>
    <i name="e_0_energy">    -43.91893837 </i>
   </energy>
  </scstep>
  <scstep>
   <time name="dav">   28.60   29.68</time>
   <time name="total">   82.96   84.53</time>
   <energy>
    <i name="e_fr_energy">   -103.71645607 </i>
    <i name="e_wo_entrp">   -103.71645607 </i>
    <i name="e_0_energy">   -103.71645607 </i>
   </energy>
  </scstep>
  <scstep>
   <time name="dav">   26.25   26.33</time>
   <time name="total">   80.46   80.67</time>
   <energy>
    <i name="e_fr_energy">    -52.98332153 </i>
    <i name="e_wo_entrp">    -52.98332153 </i>
    <i name="e_0_energy">    -52.98332153 </i>
   </energy>
  </scstep>
  <scstep>
   <time name="dav">   27.28   27.87</time>
   <time name="total">   81.54   82.31</time>
   <energy>
    <i name="e_fr_energy">    -39.04364306 </i>
    <i name="e_wo_entrp">    -39.04364306 </i>
    <i name="e_0_energy">    -39.04364306 </i>
   </energy>
  </scstep>
  <scstep>
   <time name="dav">   29.65   29.83</time>
   <time name="total">   83.11   83.45</time>
   <energy>
    <i name="e_fr_energy">    -35.52340674 </i>
    <i name="e_wo_entrp">    -35.52340674 </i>
    <i name="e_0_energy">    -35.52340674 </i>
   </energy>
  </scstep>
  <scstep>
   <time name="dav">   26.38   26.47</time>
   <time name="total">   79.70   79.85</time>
   <energy>
    <i name="e_fr_energy">    -35.81326875 </i>
    <i name="e_wo_entrp">    -35.81326875 </i>
    <i name="e_0_energy">    -35.81326875 </i>
   </energy>
  </scstep>
  <scstep>
   <time name="dav">   25.64   25.81</time>
   <time name="total">   78.65   79.17</time>
   <energy>
    <i name="e_fr_energy">    -35.69278159 </i>
    <i name="e_wo_entrp">    -35.69278159 </i>
    <i name="e_0_energy">    -35.69278159 </i>
   </energy>
  </scstep>
  <scstep>
   <time name="dav">   32.23   32.34</time>
   <time name="total">   85.50   85.82</time>
   <energy>
    <i name="e_fr_energy">    -35.62039351 </i>
    <i name="e_wo_entrp">    -35.62039351 </i>
    <i name="e_0_energy">    -35.62039351 </i>
   </energy>
  </scstep>
  <scstep>
   <time name="dav">   27.94   28.06</time>
   <time name="total">   81.21   81.59</time>
   <energy>
    <i name="e_fr_energy">    -35.43829033 </i>
    <i name="e_wo_entrp">    -35.43829033 </i>
    <i name="e_0_energy">    -35.43829033 </i>
   </energy>
  </scstep>
  <scstep>
   <time name="dav">   26.60   26.83</time>
   <time name="total">   79.50   80.04</time>
   <energy>
    <i name="e_fr_energy">    -35.52604717 </i>
    <i name="e_wo_entrp">    -35.52604717 </i>
    <i name="e_0_energy">    -35.52604717 </i>
   </energy>
  </scstep>
  <scstep>
   <time name="dav">   27.32   27.45</time>
   <time name="total">   80.40   80.82</time>
   <energy>
    <i name="e_fr_energy">    -34.75681011 </i>
    <i name="e_wo_entrp">    -34.75681011 </i>
    <i name="e_0_energy">    -34.75681011 </i>
   </energy>
  </scstep>
  <scstep>
   <time name="dav">   28.93   29.03</time>
   <time name="total">   82.28   82.54</time>
   <energy>
    <i name="e_fr_energy">    -34.40307633 </i>
    <i name="e_wo_entrp">    -34.40307633 </i>
    <i name="e_0_energy">    -34.40307633 </i>
   </energy>
  </scstep>
  <scstep>
   <time name="dav">   24.85   25.05</time>
   <time name="total">   77.94   78.22</time>
   <energy>
    <i name="e_fr_energy">    -34.47645174 </i>
    <i name="e_wo_entrp">    -34.47645174 </i>
    <i name="e_0_energy">    -34.47645174 </i>
   </energy>
  </scstep>
  <scstep>
   <time name="dav">   26.14   26.44</time>
   <time name="total">   79.06   79.72</time>
   <energy>
    <i name="e_fr_energy">    -33.99194327 </i>
    <i name="e_wo_entrp">    -33.99194327 </i>
    <i name="e_0_energy">    -33.99194327 </i>
   </energy>
  </scstep>
  <scstep>
   <time name="dav">   24.34   24.98</time>
   <time name="total">   76.99   78.44</time>
   <energy>
    <i name="e_fr_energy">    -34.52232400 </i>
    <i name="e_wo_entrp">    -34.52232400 </i>
    <i name="e_0_energy">    -34.52232400 </i>
   </energy>
  </scstep>
  <scstep>
   <time name="dav">   25.00   25.10</time>
   <time name="total">   77.78   78.40</time>
   <energy>
    <i name="e_fr_energy">    -34.24072061 </i>
    <i name="e_wo_entrp">    -34.24072061 </i>
    <i name="e_0_energy">    -34.24072061 </i>
   </energy>
  </scstep>
  <scstep>
   <time name="dav">   29.76   30.17</time>
   <time name="total">   82.92   83.56</time>
   <energy>
    <i name="e_fr_energy">    -71.13591810 </i>
    <i name="e_wo_entrp">    -71.13591810 </i>
    <i name="e_0_energy">    -71.13591810 </i>
   </energy>
  </scstep>
  <scstep>
   <time name="dav">   29.44   29.69</time>
   <time name="total">   82.44   83.04</time>
   <energy>
    <i name="e_fr_energy">   -209.11349742 </i>
    <i name="e_wo_entrp">   -209.11349742 </i>
    <i name="e_0_energy">   -209.11349742 </i>
   </energy>
  </scstep>
  <scstep>
   <time name="dav">   25.37   25.78</time>
   <time name="total">   78.00   79.08</time>
   <energy>
    <i name="e_fr_energy">    -34.64147059 </i>
    <i name="e_wo_entrp">    -34.64147059 </i>
    <i name="e_0_energy">    -34.64147059 </i>
   </energy>
  </scstep>
  <scstep>
   <time name="dav">   24.98   25.13</time>
   <time name="total">   77.75   78.45</time>
   <energy>
    <i name="e_fr_energy">    -34.67575449 </i>
    <i name="e_wo_entrp">    -34.67575449 </i>
    <i name="e_0_energy">    -34.67575449 </i>
   </energy>
  </scstep>
  <scstep>
   <time name="dav">   25.29   25.41</time>
   <time name="total">   78.25   78.79</time>
   <energy>
    <i name="e_fr_energy">    -35.35892047 </i>
    <i name="e_wo_entrp">    -35.35892047 </i>
    <i name="e_0_energy">    -35.35892047 </i>
   </energy>
  </scstep>
  <scstep>
   <time name="dav">   29.59   30.02</time>
   <time name="total">   82.63   83.34</time>
   <energy>
    <i name="e_fr_energy">    -35.36367109 </i>
    <i name="e_wo_entrp">    -35.36367109 </i>
    <i name="e_0_energy">    -35.36367109 </i>
   </energy>
  </scstep>
  <scstep>
   <time name="dav">   28.12   28.35</time>
   <time name="total">   81.19   81.73</time>
   <energy>
    <i name="e_fr_energy">    -35.57043731 </i>
    <i name="e_wo_entrp">    -35.57043731 </i>
    <i name="e_0_energy">    -35.57043731 </i>
   </energy>
  </scstep>
  <scstep>
   <time name="dav">   28.46   28.71</time>
   <time name="total">   81.92   82.33</time>
   <energy>
    <i name="e_fr_energy">    -35.88829069 </i>
    <i name="e_wo_entrp">    -35.88829069 </i>
    <i name="e_0_energy">    -35.88829069 </i>
   </energy>
  </scstep>
  <scstep>
   <time name="dav">   27.37   27.52</time>
   <time name="total">   80.45   80.78</time>
   <energy>
    <i name="e_fr_energy">    -36.09628669 </i>
    <i name="e_wo_entrp">    -36.09628669 </i>
    <i name="e_0_energy">    -36.09628669 </i>
   </energy>
  </scstep>
  <scstep>
   <time name="dav">   30.91   31.04</time>
   <time name="total">   83.78   84.29</time>
   <energy>
    <i name="e_fr_energy">    -36.15893358 </i>
    <i name="e_wo_entrp">    -36.15893358 </i>
    <i name="e_0_energy">    -36.15893358 </i>
   </energy>
  </scstep>
  <scstep>
   <time name="dav">   25.82   26.02</time>
   <time name="total">   79.30   79.59</time>
   <energy>
    <i name="e_fr_energy">    -36.16400694 </i>
    <i name="e_wo_entrp">    -36.16400694 </i>
    <i name="e_0_energy">    -36.16400694 </i>
   </energy>
  </scstep>
  <scstep>
   <time name="dav">   25.74   25.79</time>
   <time name="total">   78.86   78.97</time>
   <energy>
    <i name="e_fr_energy">    -36.07177289 </i>
    <i name="e_wo_entrp">    -36.07177289 </i>
    <i name="e_0_energy">    -36.07177289 </i>
   </energy>
  </scstep>
  <scstep>
   <time name="dav">   26.39   26.86</time>
   <time name="total">   79.64   80.27</time>
   <energy>
    <i name="e_fr_energy">    -36.03337802 </i>
    <i name="e_wo_entrp">    -36.03337802 </i>
    <i name="e_0_energy">    -36.03337802 </i>
   </energy>
  </scstep>
  <scstep>
   <time name="dav">   26.64   27.02</time>
   <time name="total">   79.79   80.42</time>
   <energy>
    <i name="e_fr_energy">    -36.10656244 </i>
    <i name="e_wo_entrp">    -36.10656244 </i>
    <i name="e_0_energy">    -36.10656244 </i>
   </energy>
  </scstep>
  <scstep>
   <time name="dav">   27.82   27.95</time>
   <time name="total">   80.92   81.25</time>
   <energy>
    <i name="e_fr_energy">    -36.15814816 </i>
    <i name="e_wo_entrp">    -36.15814816 </i>
    <i name="e_0_energy">    -36.15814816 </i>
   </energy>
  </scstep>
  <scstep>
   <time name="dav">   25.41   25.68</time>
   <time name="total">   78.79   79.16</time>
   <energy>
    <i name="e_fr_energy">    -36.17104542 </i>
    <i name="e_wo_entrp">    -36.17104542 </i>
    <i name="e_0_energy">    -36.17104542 </i>
   </energy>
  </scstep>
  <scstep>
   <time name="dav">   26.47   26.69</time>
   <time name="total">   79.67   80.19</time>
   <energy>
    <i name="e_fr_energy">    -36.17107641 </i>
    <i name="e_wo_entrp">    -36.17107641 </i>
    <i name="e_0_energy">    -36.17107641 </i>
   </energy>
  </scstep>
  <scstep>
   <time name="dav">   20.46   21.06</time>
   <time name="total">   73.46   74.47</time>
   <energy>
    <i name="e_fr_energy">    -36.17182864 </i>
    <i name="e_wo_entrp">    -36.17182864 </i>
    <i name="e_0_energy">    -36.17182864 </i>
   </energy>
  </scstep>
  <scstep>
   <time name="dav">   18.17   18.27</time>
   <time name="total">   71.39   71.97</time>
   <energy>
    <i name="e_fr_energy">    -36.17196164 </i>
    <i name="e_wo_entrp">    -36.17196164 </i>
    <i name="e_0_energy">    -36.17196164 </i>
   </energy>
  </scstep>
  <scstep>
   <time name="dav">   17.25   17.47</time>
   <time name="total">   70.31   71.02</time>
   <energy>
    <i name="e_fr_energy">    -36.17210055 </i>
    <i name="e_wo_entrp">    -36.17210055 </i>
    <i name="e_0_energy">    -36.17210055 </i>
   </energy>
  </scstep>
  <scstep>
   <time name="dav">   17.14   17.27</time>
   <time name="total">   67.97   68.41</time>
   <energy>
    <i name="alphaZ">     24.40282534 </i>
    <i name="ewald">   8065.03639907 </i>
    <i name="hartreedc"> -11676.73847316 </i>
    <i name="XCdc">    106.47034512 </i>
    <i name="pawpsdc">   2359.78223177 </i>
    <i name="pawaedc">  -2434.00934051 </i>
    <i name="eentropy">      0.00000000 </i>
    <i name="bandstr">   -518.88570201 </i>
    <i name="atom">   4037.76956432 </i>
    <i name="e_fr_energy">    -36.17215008 </i>
    <i name="e_wo_entrp">    -36.17215008 </i>
    <i name="e_0_energy">    -36.17215008 </i>
   </energy>
  </scstep>
  <structure>
   <crystal>
    <varray name="basis" >
     <v>       6.90777700      -0.00000000       0.00000000 </v>
     <v>       3.45388800       5.98231000       0.00000000 </v>
     <v>       0.00000000       0.00000000      23.44458800 </v>
    </varray>
    <i name="volume">    968.83501932 </i>
    <varray name="rec_basis" >
     <v>       0.14476437      -0.08357974       0.00000000 </v>
     <v>       0.00000000       0.16715951      -0.00000000 </v>
     <v>      -0.00000000       0.00000000       0.04265377 </v>
    </varray>
   </crystal>
   <varray name="positions" >
    <v>       0.33333300       0.33333300       0.49992500 </v>
    <v>       0.66666700       0.66666700       0.50007500 </v>
    <v>       0.00000000       0.00000000       0.44821600 </v>
    <v>       0.00000000       0.00000000       0.55178400 </v>
    <v>       0.62635700       0.00042000       0.57375200 </v>
    <v>       0.00042000       0.37322400       0.57375200 </v>
    <v>       0.37322400       0.62635700       0.57375200 </v>
    <v>       0.37364300       0.99958000       0.42624800 </v>
    <v>       0.99958000       0.62677600       0.42624800 </v>
    <v>       0.62677600       0.37364300       0.42624800 </v>
   </varray>
  </structure>
  <varray name="forces" >
   <v>       0.00000000       0.00000000       0.00901748 </v>
   <v>       0.00000000       0.00000000      -0.00901748 </v>
   <v>       0.00000000       0.00000000      -0.20349971 </v>
   <v>       0.00000000       0.00000000       0.20349971 </v>
   <v>       1.36232320      -0.00388501      -1.66063130 </v>
   <v>      -0.68452602      -1.17786393      -1.66063130 </v>
   <v>      -0.67779719       1.18174893      -1.66063130 </v>
   <v>      -1.36232320       0.00388501       1.66063130 </v>
   <v>       0.68452602       1.17786393       1.66063130 </v>
   <v>       0.67779719      -1.18174893       1.66063130 </v>
  </varray>
  <varray name="stress" >
   <v>     -51.50794877       0.00000280       0.00000000 </v>
   <v>       0.00000581     -51.50794248      -0.00000000 </v>
   <v>       0.00000000       0.00000000     -27.74324954 </v>
  </varray>
  <energy>
   <i name="e_fr_energy">    -36.17215008 </i>
   <i name="e_wo_entrp">    -36.17215008 </i>
   <i name="e_0_energy">      0.00000000 </i>
  </energy>
  <time name="totalsc"> 3199.04 3222.61</time>
 </calculation>
 <calculation>
  <scstep>
   <time name="dav">   30.17   30.24</time>
   <time name="total">   84.67   84.84</time>
   <energy>
    <i name="alphaZ">     36.77235594 </i>
    <i name="ewald">  10884.99131053 </i>
    <i name="hartreedc"> -14958.62588426 </i>
    <i name="XCdc">    134.07198036 </i>
    <i name="pawpsdc">   2359.73578791 </i>
    <i name="pawaedc">  -2433.96615170 </i>
    <i name="eentropy">      0.00000000 </i>
    <i name="bandstr">   -240.97769618 </i>
    <i name="atom">   4037.76956432 </i>
    <i name="e_fr_energy">   -180.22873309 </i>
    <i name="e_wo_entrp">   -180.22873309 </i>
    <i name="e_0_energy">   -180.22873309 </i>
   </energy>
  </scstep>
  <scstep>
   <time name="dav">   33.69   33.77</time>
   <time name="total">   87.92   88.40</time>
   <energy>
    <i name="e_fr_energy">   -353.55378754 </i>
    <i name="e_wo_entrp">   -353.55378754 </i>
    <i name="e_0_energy">   -353.55378754 </i>
   </energy>
  </scstep>
  <scstep>
   <time name="dav">   27.76   27.95</time>
   <time name="total">   82.46   82.98</time>
   <energy>
    <i name="e_fr_energy">    -74.49435499 </i>
    <i name="e_wo_entrp">    -74.49435499 </i>
    <i name="e_0_energy">    -74.49435499 </i>
   </energy>
  </scstep>
  <scstep>
   <time name="dav">   32.55   32.59</time>
   <time name="total">   86.65   87.17</time>
   <energy>
    <i name="e_fr_energy">    -64.70285852 </i>
    <i name="e_wo_entrp">    -64.70285852 </i>
    <i name="e_0_energy">    -64.70285852 </i>
   </energy>
  </scstep>
  <scstep>
   <time name="dav">   30.85   30.92</time>
   <time name="total">   85.23   85.60</time>
   <energy>
    <i name="e_fr_energy">    -44.82331573 </i>
    <i name="e_wo_entrp">    -44.82331573 </i>
    <i name="e_0_energy">    -44.82331573 </i>
   </energy>
  </scstep>
  <scstep>
   <time name="dav">   33.98   34.86</time>
   <time name="total">   88.20   89.28</time>
   <energy>
    <i name="e_fr_energy">    -45.12953354 </i>
    <i name="e_wo_entrp">    -45.12953354 </i>
    <i name="e_0_energy">    -45.12953354 </i>
   </energy>
  </scstep>
  <scstep>
   <time name="dav">   36.27   36.33</time>
   <time name="total">   90.76   91.02</time>
   <energy>
    <i name="e_fr_energy">    -47.10755801 </i>
    <i name="e_wo_entrp">    -47.10755801 </i>
    <i name="e_0_energy">    -47.10755801 </i>
   </energy>
  </scstep>
  <scstep>
   <time name="dav">   33.20   33.38</time>
   <time name="total">   87.69   88.08</time>
   <energy>
    <i name="e_fr_energy">    -45.98728165 </i>
    <i name="e_wo_entrp">    -45.98728165 </i>
    <i name="e_0_energy">    -45.98728165 </i>
   </energy>
  </scstep>
  <scstep>
   <time name="dav">   28.40   28.50</time>
   <time name="total">   82.69   83.17</time>
   <energy>
    <i name="e_fr_energy">    -44.86073700 </i>
    <i name="e_wo_entrp">    -44.86073700 </i>
    <i name="e_0_energy">    -44.86073700 </i>
   </energy>
  </scstep>
  <scstep>
   <time name="dav">   30.77   30.90</time>
   <time name="total">   85.12   85.39</time>
   <energy>
    <i name="e_fr_energy">    -44.89318680 </i>
    <i name="e_wo_entrp">    -44.89318680 </i>
    <i name="e_0_energy">    -44.89318680 </i>
   </energy>
  </scstep>
  <scstep>
   <time name="dav">   31.67   31.90</time>
   <time name="total">   86.14   86.57</time>
   <energy>
    <i name="e_fr_energy">    -44.88602549 </i>
    <i name="e_wo_entrp">    -44.88602549 </i>
    <i name="e_0_energy">    -44.88602549 </i>
   </energy>
  </scstep>
  <scstep>
   <time name="dav">   30.27   30.52</time>
   <time name="total">   84.53   85.01</time>
   <energy>
    <i name="e_fr_energy">    -44.88365592 </i>
    <i name="e_wo_entrp">    -44.88365592 </i>
    <i name="e_0_energy">    -44.88365592 </i>
   </energy>
  </scstep>
  <scstep>
   <time name="dav">   29.40   29.53</time>
   <time name="total">   83.85   84.24</time>
   <energy>
    <i name="e_fr_energy">    -44.88156789 </i>
    <i name="e_wo_entrp">    -44.88156789 </i>
    <i name="e_0_energy">    -44.88156789 </i>
   </energy>
  </scstep>
  <scstep>
   <time name="dav">   27.64   28.33</time>
   <time name="total">   82.02   82.94</time>
   <energy>
    <i name="e_fr_energy">    -44.88092085 </i>
    <i name="e_wo_entrp">    -44.88092085 </i>
    <i name="e_0_energy">    -44.88092085 </i>
   </energy>
  </scstep>
  <scstep>
   <time name="dav">   31.98   32.32</time>
   <time name="total">   86.41   87.00</time>
   <energy>
    <i name="e_fr_energy">    -44.88021730 </i>
    <i name="e_wo_entrp">    -44.88021730 </i>
    <i name="e_0_energy">    -44.88021730 </i>
   </energy>
  </scstep>
  <scstep>
   <time name="dav">   26.82   27.15</time>
   <time name="total">   81.09   81.59</time>
   <energy>
    <i name="e_fr_energy">    -44.87815559 </i>
    <i name="e_wo_entrp">    -44.87815559 </i>
    <i name="e_0_energy">    -44.87815559 </i>
   </energy>
  </scstep>
  <scstep>
   <time name="dav">   23.82   23.97</time>
   <time name="total">   78.36   78.67</time>
   <energy>
    <i name="e_fr_energy">    -44.87984697 </i>
    <i name="e_wo_entrp">    -44.87984697 </i>
    <i name="e_0_energy">    -44.87984697 </i>
   </energy>
  </scstep>
  <scstep>
   <time name="dav">   23.88   24.05</time>
   <time name="total">   78.25   78.58</time>
   <energy>
    <i name="e_fr_energy">    -44.88170309 </i>
    <i name="e_wo_entrp">    -44.88170309 </i>
    <i name="e_0_energy">    -44.88170309 </i>
   </energy>
  </scstep>
  <scstep>
   <time name="dav">   24.04   24.14</time>
   <time name="total">   78.57   78.81</time>
   <energy>
    <i name="e_fr_energy">    -44.88182137 </i>
    <i name="e_wo_entrp">    -44.88182137 </i>
    <i name="e_0_energy">    -44.88182137 </i>
   </energy>
  </scstep>
  <scstep>
   <time name="dav">   22.49   22.56</time>
   <time name="total">   76.86   77.23</time>
   <energy>
    <i name="e_fr_energy">    -44.88127394 </i>
    <i name="e_wo_entrp">    -44.88127394 </i>
    <i name="e_0_energy">    -44.88127394 </i>
   </energy>
  </scstep>
  <scstep>
   <time name="dav">   23.30   23.40</time>
   <time name="total">   77.46   77.81</time>
   <energy>
    <i name="e_fr_energy">    -44.88055044 </i>
    <i name="e_wo_entrp">    -44.88055044 </i>
    <i name="e_0_energy">    -44.88055044 </i>
   </energy>
  </scstep>
  <scstep>
   <time name="dav">   23.17   23.24</time>
   <time name="total">   77.33   77.73</time>
   <energy>
    <i name="e_fr_energy">    -44.88037119 </i>
    <i name="e_wo_entrp">    -44.88037119 </i>
    <i name="e_0_energy">    -44.88037119 </i>
   </energy>
  </scstep>
  <scstep>
   <time name="dav">   21.57   21.68</time>
   <time name="total">   75.88   76.42</time>
   <energy>
    <i name="e_fr_energy">    -44.88066371 </i>
    <i name="e_wo_entrp">    -44.88066371 </i>
    <i name="e_0_energy">    -44.88066371 </i>
   </energy>
  </scstep>
  <scstep>
   <time name="dav">   20.09   20.18</time>
   <time name="total">   75.56   76.22</time>
   <energy>
    <i name="e_fr_energy">    -44.88090512 </i>
    <i name="e_wo_entrp">    -44.88090512 </i>
    <i name="e_0_energy">    -44.88090512 </i>
   </energy>
  </scstep>
  <scstep>
   <time name="dav">   19.28   19.39</time>
   <time name="total">   73.55   73.81</time>
   <energy>
    <i name="e_fr_energy">    -44.88111209 </i>
    <i name="e_wo_entrp">    -44.88111209 </i>
    <i name="e_0_energy">    -44.88111209 </i>
   </energy>
  </scstep>
  <scstep>
   <time name="dav">   19.93   20.35</time>
   <time name="total">   74.24   74.89</time>
   <energy>
    <i name="e_fr_energy">    -44.88131777 </i>
    <i name="e_wo_entrp">    -44.88131777 </i>
    <i name="e_0_energy">    -44.88131777 </i>
   </energy>
  </scstep>
  <scstep>
   <time name="dav">   19.68   19.74</time>
   <time name="total">   71.52   72.49</time>
   <energy>
    <i name="alphaZ">     36.77235594 </i>
    <i name="ewald">  10884.99131053 </i>
    <i name="hartreedc"> -14545.54650464 </i>
    <i name="XCdc">    115.02276165 </i>
    <i name="pawpsdc">   2512.70418380 </i>
    <i name="pawaedc">  -2590.34532992 </i>
    <i name="eentropy">      0.00000000 </i>
    <i name="bandstr">   -496.24975185 </i>
    <i name="atom">   4037.76956432 </i>
    <i name="e_fr_energy">    -44.88141019 </i>
    <i name="e_wo_entrp">    -44.88141019 </i>
    <i name="e_0_energy">    -44.88141019 </i>
   </energy>
  </scstep>
  <structure>
   <crystal>
    <varray name="basis" >
     <v>       5.86981130       0.00000006       0.00000000 </v>
     <v>       2.93490533       5.08340553      -0.00000000 </v>
     <v>       0.00000000       0.00000000      21.54713786 </v>
    </varray>
    <i name="volume">    642.93709651 </i>
    <varray name="rec_basis" >
     <v>       0.17036323      -0.09835925       0.00000000 </v>
     <v>      -0.00000000       0.19671852      -0.00000000 </v>
     <v>      -0.00000000       0.00000000       0.04640988 </v>
    </varray>
   </crystal>
   <varray name="positions" >
    <v>       0.33333300       0.33333300       0.49994356 </v>
    <v>       0.66666700       0.66666700       0.50005644 </v>
    <v>      -0.00000000       0.00000000       0.44779725 </v>
    <v>      -0.00000000       0.00000000       0.55220275 </v>
    <v>       0.63588688       0.00038867       0.57033487 </v>
    <v>       0.00038867       0.36372545       0.57033487 </v>
    <v>       0.36372545       0.63588688       0.57033487 </v>
    <v>       0.36411312       0.99961133       0.42966513 </v>
    <v>       0.99961133       0.63627455       0.42966513 </v>
    <v>       0.63627455       0.36411312       0.42966513 </v>
   </varray>
  </structure>
  <varray name="forces" >
   <v>      -0.00000000      -0.00000000      -0.00059061 </v>
   <v>      -0.00000000      -0.00000000       0.00059061 </v>
   <v>      -0.00000000      -0.00000000      -0.35432596 </v>
   <v>      -0.00000000      -0.00000000       0.35432596 </v>
   <v>       0.16386181      -0.00964113      -0.23960979 </v>
   <v>      -0.09028036      -0.13708792      -0.23960979 </v>
   <v>      -0.07358145       0.14672905      -0.23960979 </v>
   <v>      -0.16386181       0.00964113       0.23960979 </v>
   <v>       0.09028036       0.13708792       0.23960979 </v>
   <v>       0.07358145      -0.14672905       0.23960979 </v>
  </varray>
  <varray name="stress" >
   <v>      -7.84821154       0.00000167       0.00000000 </v>
   <v>      -0.00000082      -7.84821092      -0.00000000 </v>
   <v>      -0.00000000       0.00000000      -3.44109025 </v>
  </varray>
  <energy>
   <i name="e_fr_energy">    -44.88141019 </i>
   <i name="e_wo_entrp">    -44.88141019 </i>
   <i name="e_0_energy">      0.00000000 </i>
  </energy>
  <time name="totalsc"> 2339.11 2352.40</time>
 </calculation>
 <calculation>
  <scstep>
   <time name="dav">   25.61   25.92</time>
   <time name="total">   79.96   80.50</time>
   <energy>
    <i name="alphaZ">     37.63533413 </i>
    <i name="ewald">  11074.07330147 </i>
    <i name="hartreedc"> -14758.18805101 </i>
    <i name="XCdc">    116.55730286 </i>
    <i name="pawpsdc">   2512.70363394 </i>
    <i name="pawaedc">  -2590.34496858 </i>
    <i name="eentropy">      0.00000000 </i>
    <i name="bandstr">   -475.48523942 </i>
    <i name="atom">   4037.76956432 </i>
    <i name="e_fr_energy">    -45.27912228 </i>
    <i name="e_wo_entrp">    -45.27912228 </i>
    <i name="e_0_energy">    -45.27912228 </i>
   </energy>
  </scstep>
  <scstep>
   <time name="dav">   25.70   25.87</time>
   <time name="total">   81.03   81.73</time>
   <energy>
    <i name="e_fr_energy">    -46.52749767 </i>
    <i name="e_wo_entrp">    -46.52749767 </i>
    <i name="e_0_energy">    -46.52749767 </i>
   </energy>
  </scstep>
  <scstep>
   <time name="dav">   23.86   24.16</time>
   <time name="total">   77.92   78.62</time>
   <energy>
    <i name="e_fr_energy">    -44.93559147 </i>
    <i name="e_wo_entrp">    -44.93559147 </i>
    <i name="e_0_energy">    -44.93559147 </i>
   </energy>
  </scstep>
  <scstep>
   <time name="dav">   28.42   28.55</time>
   <time name="total">   82.99   83.33</time>
   <energy>
    <i name="e_fr_energy">    -44.95060355 </i>
    <i name="e_wo_entrp">    -44.95060355 </i>
    <i name="e_0_energy">    -44.95060355 </i>
   </energy>
  </scstep>
  <scstep>
   <time name="dav">   28.62   28.71</time>
   <time name="total">   83.04   83.40</time>
   <energy>
    <i name="e_fr_energy">    -44.91817852 </i>
    <i name="e_wo_entrp">    -44.91817852 </i>
    <i name="e_0_energy">    -44.91817852 </i>
   </energy>
  </scstep>
  <scstep>
   <time name="dav">   31.28   31.48</time>
   <time name="total">   85.55   86.21</time>
   <energy>
    <i name="e_fr_energy">    -44.91830156 </i>
    <i name="e_wo_entrp">    -44.91830156 </i>
    <i name="e_0_energy">    -44.91830156 </i>
   </energy>
  </scstep>
  <scstep>
   <time name="dav">   24.36   24.58</time>
   <time name="total">   76.75   77.05</time>
   <energy>
    <i name="alphaZ">     37.63533413 </i>
    <i name="ewald">  11074.07330147 </i>
    <i name="hartreedc"> -14739.00573828 </i>
    <i name="XCdc">    115.65849897 </i>
    <i name="pawpsdc">   2526.57579967 </i>
    <i name="pawaedc">  -2604.55615256 </i>
    <i name="eentropy">      0.00000000 </i>
    <i name="bandstr">   -493.06897911 </i>
    <i name="atom">   4037.76956432 </i>
    <i name="e_fr_energy">    -44.91837138 </i>
    <i name="e_wo_entrp">    -44.91837138 </i>
    <i name="e_0_energy">    -44.91837138 </i>
   </energy>
  </scstep>
  <structure>
   <crystal>
    <varray name="basis" >
     <v>       5.81552993       0.00000006       0.00000000 </v>
     <v>       2.90776465       5.03639650      -0.00000000 </v>
     <v>       0.00000000       0.00000000      21.44790897 </v>
    </varray>
    <i name="volume">    628.19454911 </i>
    <varray name="rec_basis" >
     <v>       0.17195338      -0.09927732       0.00000000 </v>
     <v>      -0.00000000       0.19855466      -0.00000000 </v>
     <v>      -0.00000000       0.00000000       0.04662459 </v>
    </varray>
   </crystal>
   <varray name="positions" >
    <v>       0.33333300       0.33333300       0.49994461 </v>
    <v>       0.66666700       0.66666700       0.50005539 </v>
    <v>      -0.00000000       0.00000000       0.44777343 </v>
    <v>      -0.00000000       0.00000000       0.55222657 </v>
    <v>       0.63647338       0.00038674       0.57014043 </v>
    <v>       0.00038674       0.36314087       0.57014043 </v>
    <v>       0.36314087       0.63647338       0.57014043 </v>
    <v>       0.36352662       0.99961326       0.42985957 </v>
    <v>       0.99961326       0.63685913       0.42985957 </v>
    <v>       0.63685913       0.36352662       0.42985957 </v>
   </varray>
  </structure>
  <varray name="forces" >
   <v>       0.00000000       0.00000000      -0.00224655 </v>
   <v>       0.00000000       0.00000000       0.00224655 </v>
   <v>       0.00000000       0.00000000      -0.35619350 </v>
   <v>       0.00000000       0.00000000       0.35619350 </v>
   <v>      -0.03793692      -0.01056427      -0.06944014 </v>
   <v>       0.00981953       0.03813647      -0.06944014 </v>
   <v>       0.02811739      -0.02757220      -0.06944014 </v>
   <v>       0.03793692       0.01056427       0.06944014 </v>
   <v>      -0.00981953      -0.03813647       0.06944014 </v>
   <v>      -0.02811739       0.02757220       0.06944014 </v>
  </varray>
  <varray name="stress" >
   <v>      -0.54712491      -0.00000266       0.00000000 </v>
   <v>       0.00000272      -0.54712487      -0.00000000 </v>
   <v>       0.00000000      -0.00000000      -0.75504408 </v>
  </varray>
  <energy>
   <i name="e_fr_energy">    -44.91837138 </i>
   <i name="e_wo_entrp">    -44.91837138 </i>
   <i name="e_0_energy">      0.00000000 </i>
  </energy>
  <time name="totalsc">  703.11  707.68</time>
 </calculation>
 <calculation>
  <scstep>
   <time name="dav">   25.36   25.63</time>
   <time name="total">   80.00   80.51</time>
   <energy>
    <i name="alphaZ">     37.64939256 </i>
    <i name="ewald">  11057.38763097 </i>
    <i name="hartreedc"> -14723.44473295 </i>
    <i name="XCdc">    115.67216055 </i>
    <i name="pawpsdc">   2527.20739103 </i>
    <i name="pawaedc">  -2605.19813780 </i>
    <i name="eentropy">      0.00000000 </i>
    <i name="bandstr">   -491.96794821 </i>
    <i name="atom">   4037.76956432 </i>
    <i name="e_fr_energy">    -44.92467953 </i>
    <i name="e_wo_entrp">    -44.92467953 </i>
    <i name="e_0_energy">    -44.92467953 </i>
   </energy>
  </scstep>
  <scstep>
   <time name="dav">   26.48   26.68</time>
   <time name="total">   81.00   81.49</time>
   <energy>
    <i name="e_fr_energy">    -44.92547945 </i>
    <i name="e_wo_entrp">    -44.92547945 </i>
    <i name="e_0_energy">    -44.92547945 </i>
   </energy>
  </scstep>
  <scstep>
   <time name="dav">   27.86   27.98</time>
   <time name="total">   82.20   82.72</time>
   <energy>
    <i name="e_fr_energy">    -44.92539787 </i>
    <i name="e_wo_entrp">    -44.92539787 </i>
    <i name="e_0_energy">    -44.92539787 </i>
   </energy>
  </scstep>
  <scstep>
   <time name="dav">   21.99   22.27</time>
   <time name="total">   74.23   74.84</time>
   <energy>
    <i name="alphaZ">     37.64939256 </i>
    <i name="ewald">  11057.38763097 </i>
    <i name="hartreedc"> -14722.85664904 </i>
    <i name="XCdc">    115.65599925 </i>
    <i name="pawpsdc">   2528.54387137 </i>
    <i name="pawaedc">  -2606.54772712 </i>
    <i name="eentropy">      0.00000000 </i>
    <i name="bandstr">   -492.52738948 </i>
    <i name="atom">   4037.76956432 </i>
    <i name="e_fr_energy">    -44.92530717 </i>
    <i name="e_wo_entrp">    -44.92530717 </i>
    <i name="e_0_energy">    -44.92530717 </i>
   </energy>
  </scstep>
  <structure>
   <crystal>
    <varray name="basis" >
     <v>       5.81669079       0.00000003       0.00000000 </v>
     <v>       2.90834511       5.03740181      -0.00000000 </v>
     <v>       0.00000000       0.00000000      21.43134341 </v>
    </varray>
    <i name="volume">    627.95997889 </i>
    <varray name="rec_basis" >
     <v>       0.17191906      -0.09925751       0.00000000 </v>
     <v>      -0.00000000       0.19851504      -0.00000000 </v>
     <v>      -0.00000000       0.00000000       0.04666063 </v>
    </varray>
   </crystal>
   <varray name="positions" >
    <v>       0.33333300       0.33333300       0.49993934 </v>
    <v>       0.66666700       0.66666700       0.50006066 </v>
    <v>      -0.00000000       0.00000000       0.44696766 </v>
    <v>      -0.00000000       0.00000000       0.55303234 </v>
    <v>       0.63611270       0.00028480       0.57001356 </v>
    <v>       0.00028480       0.36360351       0.57001356 </v>
    <v>       0.36360351       0.63611270       0.57001356 </v>
    <v>       0.36388730       0.99971520       0.42998644 </v>
    <v>       0.99971520       0.63639649       0.42998644 </v>
    <v>       0.63639649       0.36388730       0.42998644 </v>
   </varray>
  </structure>
  <varray name="forces" >
   <v>       0.00000000       0.00000000       0.00126452 </v>
   <v>       0.00000000      -0.00000000      -0.00126452 </v>
   <v>       0.00000000       0.00000000       0.04600356 </v>
   <v>       0.00000000      -0.00000000      -0.04600356 </v>
   <v>      -0.03147066      -0.00739735      -0.03050720 </v>
   <v>       0.00932904       0.03095306      -0.03050720 </v>
   <v>       0.02214162      -0.02355572      -0.03050720 </v>
   <v>       0.03147066       0.00739735       0.03050720 </v>
   <v>      -0.00932904      -0.03095306       0.03050720 </v>
   <v>      -0.02214162       0.02355572       0.03050720 </v>
  </varray>
  <varray name="stress" >
   <v>      -0.13917815       0.00000112      -0.00000000 </v>
   <v>      -0.00000111      -0.13917814      -0.00000000 </v>
   <v>      -0.00000000      -0.00000000      -2.15043034 </v>
  </varray>
  <energy>
   <i name="e_fr_energy">    -44.92530717 </i>
   <i name="e_wo_entrp">    -44.92530717 </i>
   <i name="e_0_energy">      0.00000000 </i>
  </energy>
  <time name="totalsc">  453.68  456.41</time>
 </calculation>
 <calculation>
  <scstep>
   <time name="dav">   21.36   21.56</time>
   <time name="total">   75.57   76.17</time>
   <energy>
    <i name="alphaZ">     37.64940424 </i>
    <i name="ewald">  11057.37374383 </i>
    <i name="hartreedc"> -14722.57653503 </i>
    <i name="XCdc">    115.64766808 </i>
    <i name="pawpsdc">   2528.71739309 </i>
    <i name="pawaedc">  -2606.72097925 </i>
    <i name="eentropy">      0.00000000 </i>
    <i name="bandstr">   -492.78564036 </i>
    <i name="atom">   4037.76956432 </i>
    <i name="e_fr_energy">    -44.92538109 </i>
    <i name="e_wo_entrp">    -44.92538109 </i>
    <i name="e_0_energy">    -44.92538109 </i>
   </energy>
  </scstep>
  <scstep>
   <time name="dav">   20.85   20.93</time>
   <time name="total">   73.39   73.50</time>
   <energy>
    <i name="alphaZ">     37.64940424 </i>
    <i name="ewald">  11057.37374383 </i>
    <i name="hartreedc"> -14722.49710645 </i>
    <i name="XCdc">    115.64766100 </i>
    <i name="pawpsdc">   2528.79536068 </i>
    <i name="pawaedc">  -2606.80666874 </i>
    <i name="eentropy">      0.00000000 </i>
    <i name="bandstr">   -492.85738483 </i>
    <i name="atom">   4037.76956432 </i>
    <i name="e_fr_energy">    -44.92542596 </i>
    <i name="e_wo_entrp">    -44.92542596 </i>
    <i name="e_0_energy">    -44.92542596 </i>
   </energy>
  </scstep>
  <structure>
   <crystal>
    <varray name="basis" >
     <v>       5.81669176       0.00000003       0.00000000 </v>
     <v>       2.90834559       5.03740265      -0.00000000 </v>
     <v>       0.00000000       0.00000000      21.43132966 </v>
    </varray>
    <i name="volume">    627.95978408 </i>
    <varray name="rec_basis" >
     <v>       0.17191903      -0.09925749       0.00000000 </v>
     <v>      -0.00000000       0.19851500      -0.00000000 </v>
     <v>      -0.00000000       0.00000000       0.04666066 </v>
    </varray>
   </crystal>
   <varray name="positions" >
    <v>       0.33333300       0.33333300       0.49993933 </v>
    <v>       0.66666700       0.66666700       0.50006067 </v>
    <v>      -0.00000000       0.00000000       0.44696699 </v>
    <v>      -0.00000000       0.00000000       0.55303301 </v>
    <v>       0.63611240       0.00028471       0.57001346 </v>
    <v>       0.00028471       0.36360389       0.57001346 </v>
    <v>       0.36360389       0.63611240       0.57001346 </v>
    <v>       0.36388760       0.99971529       0.42998654 </v>
    <v>       0.99971529       0.63639611       0.42998654 </v>
    <v>       0.63639611       0.36388760       0.42998654 </v>
   </varray>
  </structure>
  <varray name="forces" >
   <v>      -0.00000000      -0.00000000       0.00141298 </v>
   <v>       0.00000000       0.00000000      -0.00141298 </v>
   <v>      -0.00000000       0.00000000       0.04650116 </v>
   <v>      -0.00000000      -0.00000000      -0.04650116 </v>
   <v>      -0.02796432      -0.00693161      -0.03237268 </v>
   <v>       0.00797921       0.02768362      -0.03237268 </v>
   <v>       0.01998511      -0.02075201      -0.03237268 </v>
   <v>       0.02796432       0.00693161       0.03237268 </v>
   <v>      -0.00797921      -0.02768362       0.03237268 </v>
   <v>      -0.01998511       0.02075201       0.03237268 </v>
  </varray>
  <varray name="stress" >
   <v>       0.10684557       0.00000052       0.00000000 </v>
   <v>      -0.00000053       0.10684556      -0.00000000 </v>
   <v>       0.00000000      -0.00000000      -1.58291024 </v>
  </varray>
  <energy>
   <i name="e_fr_energy">    -44.92542596 </i>
   <i name="e_wo_entrp">    -44.92542596 </i>
   <i name="e_0_energy">      0.00000000 </i>
  </energy>
  <time name="totalsc">  285.21  286.40</time>
 </calculation>
 <calculation>
  <scstep>
   <time name="dav">   27.80   27.88</time>
   <time name="total">   81.92   82.47</time>
   <energy>
    <i name="alphaZ">     37.75053656 </i>
    <i name="ewald">  11008.96752593 </i>
    <i name="hartreedc"> -14680.41326193 </i>
    <i name="XCdc">    115.83195650 </i>
    <i name="pawpsdc">   2528.77709442 </i>
    <i name="pawaedc">  -2606.78258522 </i>
    <i name="eentropy">      0.00000000 </i>
    <i name="bandstr">   -486.83535331 </i>
    <i name="atom">   4037.76956432 </i>
    <i name="e_fr_energy">    -44.93452274 </i>
    <i name="e_wo_entrp">    -44.93452274 </i>
    <i name="e_0_energy">    -44.93452274 </i>
   </energy>
  </scstep>
  <scstep>
   <time name="dav">   24.41   24.52</time>
   <time name="total">   78.58   79.00</time>
   <energy>
    <i name="e_fr_energy">    -44.95445972 </i>
    <i name="e_wo_entrp">    -44.95445972 </i>
    <i name="e_0_energy">    -44.95445972 </i>
   </energy>
  </scstep>
  <scstep>
   <time name="dav">   23.76   23.89</time>
   <time name="total">   78.30   78.57</time>
   <energy>
    <i name="e_fr_energy">    -44.92745355 </i>
    <i name="e_wo_entrp">    -44.92745355 </i>
    <i name="e_0_energy">    -44.92745355 </i>
   </energy>
  </scstep>
  <scstep>
   <time name="dav">   26.56   26.61</time>
   <time name="total">   81.07   81.20</time>
   <energy>
    <i name="e_fr_energy">    -44.92588217 </i>
    <i name="e_wo_entrp">    -44.92588217 </i>
    <i name="e_0_energy">    -44.92588217 </i>
   </energy>
  </scstep>
  <scstep>
   <time name="dav">   25.10   25.17</time>
   <time name="total">   79.60   79.81</time>
   <energy>
    <i name="e_fr_energy">    -44.92568220 </i>
    <i name="e_wo_entrp">    -44.92568220 </i>
    <i name="e_0_energy">    -44.92568220 </i>
   </energy>
  </scstep>
  <scstep>
   <time name="dav">   24.00   24.15</time>
   <time name="total">   76.39   76.60</time>
   <energy>
    <i name="alphaZ">     37.75053656 </i>
    <i name="ewald">  11008.96752593 </i>
    <i name="hartreedc"> -14675.92603129 </i>
    <i name="XCdc">    115.69960293 </i>
    <i name="pawpsdc">   2530.68272803 </i>
    <i name="pawaedc">  -2608.73946977 </i>
    <i name="eentropy">      0.00000000 </i>
    <i name="bandstr">   -491.13019267 </i>
    <i name="atom">   4037.76956432 </i>
    <i name="e_fr_energy">    -44.92573596 </i>
    <i name="e_wo_entrp">    -44.92573596 </i>
    <i name="e_0_energy">    -44.92573596 </i>
   </energy>
  </scstep>
  <structure>
   <crystal>
    <varray name="basis" >
     <v>       5.81806935       0.00000003       0.00000000 </v>
     <v>       2.90903439       5.03859568      -0.00000000 </v>
     <v>       0.00000000      -0.00000000      21.36379530 </v>
    </varray>
    <i name="volume">    626.27750261 </i>
    <varray name="rec_basis" >
     <v>       0.17187832      -0.09923399      -0.00000000 </v>
     <v>      -0.00000000       0.19846800       0.00000000 </v>
     <v>      -0.00000000       0.00000000       0.04680816 </v>
    </varray>
   </crystal>
   <varray name="positions" >
    <v>       0.33333300       0.33333300       0.49994168 </v>
    <v>       0.66666700       0.66666700       0.50005832 </v>
    <v>      -0.00000000       0.00000000       0.44694083 </v>
    <v>      -0.00000000       0.00000000       0.55305917 </v>
    <v>       0.63585254       0.00020095       0.56991903 </v>
    <v>       0.00020095       0.36394751       0.56991903 </v>
    <v>       0.36394751       0.63585254       0.56991903 </v>
    <v>       0.36414746       0.99979905       0.43008097 </v>
    <v>       0.99979905       0.63605249       0.43008097 </v>
    <v>       0.63605249       0.36414746       0.43008097 </v>
   </varray>
  </structure>
  <varray name="forces" >
   <v>       0.00000000      -0.00000000       0.00322331 </v>
   <v>       0.00000000      -0.00000000      -0.00322331 </v>
   <v>       0.00000000      -0.00000000      -0.01368115 </v>
   <v>       0.00000000      -0.00000000       0.01368115 </v>
   <v>      -0.00473935      -0.00407874       0.00875056 </v>
   <v>      -0.00116261       0.00614377       0.00875056 </v>
   <v>       0.00590197      -0.00206503       0.00875056 </v>
   <v>       0.00473935       0.00407874      -0.00875056 </v>
   <v>       0.00116261      -0.00614377      -0.00875056 </v>
   <v>      -0.00590197       0.00206503      -0.00875056 </v>
  </varray>
  <varray name="stress" >
   <v>       0.56248198      -0.00000092       0.00000000 </v>
   <v>       0.00000086       0.56248193      -0.00000000 </v>
   <v>       0.00000000      -0.00000000      -0.19274742 </v>
  </varray>
  <energy>
   <i name="e_fr_energy">    -44.92573596 </i>
   <i name="e_wo_entrp">    -44.92573596 </i>
   <i name="e_0_energy">      0.00000000 </i>
  </energy>
  <time name="totalsc">  612.75  614.76</time>
 </calculation>
 <calculation>
  <scstep>
   <time name="dav">   24.57   24.81</time>
   <time name="total">   78.98   79.41</time>
   <energy>
    <i name="alphaZ">     37.76417206 </i>
    <i name="ewald">  11002.46666111 </i>
    <i name="hartreedc"> -14669.96819270 </i>
    <i name="XCdc">    115.72058026 </i>
    <i name="pawpsdc">   2530.93818825 </i>
    <i name="pawaedc">  -2609.00981774 </i>
    <i name="eentropy">      0.00000000 </i>
    <i name="bandstr">   -490.60726081 </i>
    <i name="atom">   4037.76956432 </i>
    <i name="e_fr_energy">    -44.92610526 </i>
    <i name="e_wo_entrp">    -44.92610526 </i>
    <i name="e_0_energy">    -44.92610526 </i>
   </energy>
  </scstep>
  <scstep>
   <time name="dav">   22.96   23.26</time>
   <time name="total">   76.88   77.97</time>
   <energy>
    <i name="e_fr_energy">    -44.92637710 </i>
    <i name="e_wo_entrp">    -44.92637710 </i>
    <i name="e_0_energy">    -44.92637710 </i>
   </energy>
  </scstep>
  <scstep>
   <time name="dav">   23.68   23.90</time>
   <time name="total">   77.96   78.61</time>
   <energy>
    <i name="e_fr_energy">    -44.92590071 </i>
    <i name="e_wo_entrp">    -44.92590071 </i>
    <i name="e_0_energy">    -44.92590071 </i>
   </energy>
  </scstep>
  <scstep>
   <time name="dav">   20.03   20.26</time>
   <time name="total">   72.36   72.83</time>
   <energy>
    <i name="alphaZ">     37.76417206 </i>
    <i name="ewald">  11002.46666111 </i>
    <i name="hartreedc"> -14669.01622147 </i>
    <i name="XCdc">    115.70017826 </i>
    <i name="pawpsdc">   2531.20050840 </i>
    <i name="pawaedc">  -2609.27374017 </i>
    <i name="eentropy">      0.00000000 </i>
    <i name="bandstr">   -491.53710737 </i>
    <i name="atom">   4037.76956432 </i>
    <i name="e_fr_energy">    -44.92598486 </i>
    <i name="e_wo_entrp">    -44.92598486 </i>
    <i name="e_0_energy">    -44.92598486 </i>
   </energy>
  </scstep>
  <structure>
   <crystal>
    <varray name="basis" >
     <v>       5.81825442       0.00000003       0.00000000 </v>
     <v>       2.90912692       5.03875595      -0.00000000 </v>
     <v>       0.00000000      -0.00000000      21.35472295 </v>
    </varray>
    <i name="volume">    626.05137275 </i>
    <varray name="rec_basis" >
     <v>       0.17187286      -0.09923083      -0.00000000 </v>
     <v>      -0.00000000       0.19846169       0.00000000 </v>
     <v>      -0.00000000       0.00000000       0.04682805 </v>
    </varray>
   </crystal>
   <varray name="positions" >
    <v>       0.33333300       0.33333300       0.49994200 </v>
    <v>       0.66666700       0.66666700       0.50005800 </v>
    <v>      -0.00000000       0.00000000       0.44693730 </v>
    <v>      -0.00000000       0.00000000       0.55306270 </v>
    <v>       0.63581764       0.00018970       0.56990631 </v>
    <v>       0.00018970       0.36399366       0.56990631 </v>
    <v>       0.36399366       0.63581764       0.56990631 </v>
    <v>       0.36418236       0.99981030       0.43009369 </v>
    <v>       0.99981030       0.63600634       0.43009369 </v>
    <v>       0.63600634       0.36418236       0.43009369 </v>
   </varray>
  </structure>
  <varray name="forces" >
   <v>       0.00000000      -0.00000000       0.00354642 </v>
   <v>      -0.00000000       0.00000000      -0.00354642 </v>
   <v>      -0.00000000      -0.00000000      -0.02139817 </v>
   <v>       0.00000000      -0.00000000       0.02139817 </v>
   <v>      -0.00203130      -0.00336525       0.01600349 </v>
   <v>      -0.00189875       0.00344178       0.01600349 </v>
   <v>       0.00393004      -0.00007653       0.01600349 </v>
   <v>       0.00203130       0.00336525      -0.01600349 </v>
   <v>       0.00189875      -0.00344178      -0.01600349 </v>
   <v>      -0.00393004       0.00007653      -0.01600349 </v>
  </varray>
  <varray name="stress" >
   <v>      -0.12009825      -0.00000104       0.00000000 </v>
   <v>       0.00000105      -0.12009824       0.00000000 </v>
   <v>       0.00000000      -0.00000000      -0.62378955 </v>
  </varray>
  <energy>
   <i name="e_fr_energy">    -44.92598486 </i>
   <i name="e_wo_entrp">    -44.92598486 </i>
   <i name="e_0_energy">      0.00000000 </i>
  </energy>
  <time name="totalsc">  439.56  442.96</time>
  <eigenvalues>
   <array>
    <dimension dim="1">band</dimension>
    <dimension dim="2">kpoint</dimension>
    <dimension dim="3">spin</dimension>
    <field>eigene</field>
    <field>occ</field>
    <set>
     <set comment="spin 1">
      <set comment="kpoint 1">
       <r>  -17.4793    1.0000 </r>
       <r>  -16.4567    1.0000 </r>
       <r>  -15.1538    1.0000 </r>
       <r>  -15.1537    1.0000 </r>
       <r>  -15.1249    1.0000 </r>
       <r>  -15.1248    1.0000 </r>
       <r>  -11.0467    1.0000 </r>
       <r>   -9.1231    1.0000 </r>
       <r>   -8.2445    1.0000 </r>
       <r>   -8.2261    1.0000 </r>
       <r>   -8.2261    1.0000 </r>
       <r>   -7.9504    1.0000 </r>
       <r>   -7.8905    1.0000 </r>
       <r>   -7.8905    1.0000 </r>
       <r>   -6.5581    1.0000 </r>
       <r>   -6.2967    1.0000 </r>
       <r>   -6.2967    1.0000 </r>
       <r>   -5.9768    1.0000 </r>
       <r>   -5.9768    1.0000 </r>
       <r>   -4.9805    1.0000 </r>
       <r>   -4.9275    1.0000 </r>
       <r>   -4.7264    1.0000 </r>
       <r>   -4.7264    1.0000 </r>
       <r>   -4.5463    1.0000 </r>
       <r>   -4.5463    1.0000 </r>
       <r>   -4.4376    1.0000 </r>
       <r>   -4.3709    1.0000 </r>
       <r>   -4.3709    1.0000 </r>
       <r>   -3.5224    1.0000 </r>
       <r>   -3.5224    1.0000 </r>
       <r>   -3.3418    1.0000 </r>
       <r>   -2.7827    1.0000 </r>
       <r>   -2.7826    1.0000 </r>
       <r>   -2.0852    0.0000 </r>
       <r>   -2.0851    0.0000 </r>
       <r>    0.1827    0.0000 </r>
       <r>    0.6556    0.0000 </r>
       <r>    2.1035    0.0000 </r>
       <r>    2.1035    0.0000 </r>
       <r>    2.1870    0.0000 </r>
       <r>    2.3063    0.0000 </r>
       <r>    2.4557    0.0000 </r>
       <r>    2.9939    0.0000 </r>
       <r>    3.2684    0.0000 </r>
       <r>    3.6044    0.0000 </r>
       <r>    3.6044    0.0000 </r>
       <r>    3.8470    0.0000 </r>
       <r>    4.1763    0.0000 </r>
      </set>
      <set comment="kpoint 2">
       <r>  -17.3193    1.0000 </r>
       <r>  -16.3358    1.0000 </r>
       <r>  -15.4629    1.0000 </r>
       <r>  -15.2914    1.0000 </r>
       <r>  -15.1821    1.0000 </r>
       <r>  -15.1728    1.0000 </r>
       <r>  -10.9329    1.0000 </r>
       <r>   -9.3516    1.0000 </r>
       <r>   -8.4151    1.0000 </r>
       <r>   -8.1979    1.0000 </r>
       <r>   -8.0924    1.0000 </r>
       <r>   -7.7411    1.0000 </r>
       <r>   -7.2917    1.0000 </r>
       <r>   -6.9944    1.0000 </r>
       <r>   -6.5766    1.0000 </r>
       <r>   -6.4326    1.0000 </r>
       <r>   -6.2971    1.0000 </r>
       <r>   -6.1470    1.0000 </r>
       <r>   -5.6035    1.0000 </r>
       <r>   -5.1623    1.0000 </r>
       <r>   -5.1079    1.0000 </r>
       <r>   -4.9709    1.0000 </r>
       <r>   -4.7370    1.0000 </r>
       <r>   -4.6890    1.0000 </r>
       <r>   -4.6563    1.0000 </r>
       <r>   -4.4432    1.0000 </r>
       <r>   -4.3101    1.0000 </r>
       <r>   -4.2885    1.0000 </r>
       <r>   -4.0559    1.0000 </r>
       <r>   -3.7282    1.0000 </r>
       <r>   -3.5199    1.0000 </r>
       <r>   -2.7111    1.0000 </r>
       <r>   -2.5969    1.0000 </r>
       <r>   -2.4693    0.0000 </r>
       <r>   -2.2025    0.0000 </r>
       <r>    0.6059    0.0000 </r>
       <r>    0.9438    0.0000 </r>
       <r>    1.9259    0.0000 </r>
       <r>    2.0378    0.0000 </r>
       <r>    2.3725    0.0000 </r>
       <r>    2.3753    0.0000 </r>
       <r>    2.5286    0.0000 </r>
       <r>    2.7455    0.0000 </r>
       <r>    3.4014    0.0000 </r>
       <r>    3.4294    0.0000 </r>
       <r>    3.5628    0.0000 </r>
       <r>    3.8427    0.0000 </r>
       <r>    3.9014    0.0000 </r>
      </set>
      <set comment="kpoint 3">
       <r>  -16.8858    1.0000 </r>
       <r>  -16.0928    1.0000 </r>
       <r>  -16.0284    1.0000 </r>
       <r>  -15.4786    1.0000 </r>
       <r>  -15.4073    1.0000 </r>
       <r>  -15.2982    1.0000 </r>
       <r>  -10.7573    1.0000 </r>
       <r>   -9.4999    1.0000 </r>
       <r>   -8.2249    1.0000 </r>
       <r>   -7.9850    1.0000 </r>
       <r>   -7.6310    1.0000 </r>
       <r>   -7.0304    1.0000 </r>
       <r>   -6.7210    1.0000 </r>
       <r>   -6.6696    1.0000 </r>
       <r>   -6.5226    1.0000 </r>
       <r>   -6.5183    1.0000 </r>
       <r>   -6.4541    1.0000 </r>
       <r>   -6.4164    1.0000 </r>
       <r>   -5.5339    1.0000 </r>
       <r>   -5.4661    1.0000 </r>
       <r>   -5.3858    1.0000 </r>
       <r>   -5.1371    1.0000 </r>
       <r>   -4.9380    1.0000 </r>
       <r>   -4.6521    1.0000 </r>
       <r>   -4.6053    1.0000 </r>
       <r>   -4.5181    1.0000 </r>
       <r>   -4.4667    1.0000 </r>
       <r>   -4.1704    1.0000 </r>
       <r>   -4.1485    1.0000 </r>
       <r>   -4.0708    1.0000 </r>
       <r>   -3.5699    1.0000 </r>
       <r>   -2.8797    1.0000 </r>
       <r>   -2.7746    1.0000 </r>
       <r>   -2.4318    0.0000 </r>
       <r>   -2.1531    0.0000 </r>
       <r>    0.5407    0.0000 </r>
       <r>    0.7192    0.0000 </r>
       <r>    1.7326    0.0000 </r>
       <r>    1.8807    0.0000 </r>
       <r>    2.0975    0.0000 </r>
       <r>    2.3226    0.0000 </r>
       <r>    2.7634    0.0000 </r>
       <r>    2.8193    0.0000 </r>
       <r>    3.2438    0.0000 </r>
       <r>    3.2806    0.0000 </r>
       <r>    3.5357    0.0000 </r>
       <r>    3.8525    0.0000 </r>
       <r>    4.1644    0.0000 </r>
      </set>
      <set comment="kpoint 4">
       <r>  -17.0182    1.0000 </r>
       <r>  -16.1181    1.0000 </r>
       <r>  -15.7733    1.0000 </r>
       <r>  -15.6234    1.0000 </r>
       <r>  -15.3362    1.0000 </r>
       <r>  -15.2549    1.0000 </r>
       <r>  -10.7181    1.0000 </r>
       <r>   -9.4376    1.0000 </r>
       <r>   -8.5189    1.0000 </r>
       <r>   -7.9445    1.0000 </r>
       <r>   -7.8183    1.0000 </r>
       <r>   -7.2455    1.0000 </r>
       <r>   -6.7006    1.0000 </r>
       <r>   -6.6304    1.0000 </r>
       <r>   -6.6222    1.0000 </r>
       <r>   -6.4042    1.0000 </r>
       <r>   -6.3843    1.0000 </r>
       <r>   -6.0582    1.0000 </r>
       <r>   -5.8544    1.0000 </r>
       <r>   -5.6755    1.0000 </r>
       <r>   -5.4230    1.0000 </r>
       <r>   -5.0154    1.0000 </r>
       <r>   -4.7500    1.0000 </r>
       <r>   -4.6356    1.0000 </r>
       <r>   -4.5864    1.0000 </r>
       <r>   -4.5052    1.0000 </r>
       <r>   -4.3296    1.0000 </r>
       <r>   -4.2765    1.0000 </r>
       <r>   -4.1500    1.0000 </r>
       <r>   -3.8684    1.0000 </r>
       <r>   -3.5568    1.0000 </r>
       <r>   -3.1066    1.0000 </r>
       <r>   -2.5078    1.0000 </r>
       <r>   -2.3111    0.0000 </r>
       <r>   -2.2519    0.0000 </r>
       <r>    0.6331    0.0000 </r>
       <r>    0.7141    0.0000 </r>
       <r>    1.5787    0.0000 </r>
       <r>    1.7299    0.0000 </r>
       <r>    2.2782    0.0000 </r>
       <r>    2.3682    0.0000 </r>
       <r>    2.4932    0.0000 </r>
       <r>    2.8219    0.0000 </r>
       <r>    3.0955    0.0000 </r>
       <r>    3.2116    0.0000 </r>
       <r>    3.7089    0.0000 </r>
       <r>    3.8994    0.0000 </r>
       <r>    4.0959    0.0000 </r>
      </set>
      <set comment="kpoint 5">
       <r>  -16.6273    1.0000 </r>
       <r>  -16.2095    1.0000 </r>
       <r>  -15.8738    1.0000 </r>
       <r>  -15.7683    1.0000 </r>
       <r>  -15.5313    1.0000 </r>
       <r>  -15.3411    1.0000 </r>
       <r>  -10.5440    1.0000 </r>
       <r>   -9.4237    1.0000 </r>
       <r>   -8.2472    1.0000 </r>
       <r>   -7.7562    1.0000 </r>
       <r>   -7.7005    1.0000 </r>
       <r>   -7.1911    1.0000 </r>
       <r>   -7.0502    1.0000 </r>
       <r>   -6.7380    1.0000 </r>
       <r>   -6.5917    1.0000 </r>
       <r>   -6.3812    1.0000 </r>
       <r>   -6.2834    1.0000 </r>
       <r>   -6.0773    1.0000 </r>
       <r>   -5.7389    1.0000 </r>
       <r>   -5.6755    1.0000 </r>
       <r>   -5.4203    1.0000 </r>
       <r>   -4.9446    1.0000 </r>
       <r>   -4.8706    1.0000 </r>
       <r>   -4.7177    1.0000 </r>
       <r>   -4.6837    1.0000 </r>
       <r>   -4.3545    1.0000 </r>
       <r>   -4.3459    1.0000 </r>
       <r>   -4.1803    1.0000 </r>
       <r>   -4.1735    1.0000 </r>
       <r>   -3.9146    1.0000 </r>
       <r>   -3.5239    1.0000 </r>
       <r>   -2.8162    1.0000 </r>
       <r>   -2.7809    1.0000 </r>
       <r>   -2.3725    0.0000 </r>
       <r>   -2.1056    0.0000 </r>
       <r>    0.1889    0.0000 </r>
       <r>    0.6092    0.0000 </r>
       <r>    1.1299    0.0000 </r>
       <r>    1.4409    0.0000 </r>
       <r>    1.8496    0.0000 </r>
       <r>    2.1742    0.0000 </r>
       <r>    2.3392    0.0000 </r>
       <r>    3.1826    0.0000 </r>
       <r>    3.3008    0.0000 </r>
       <r>    3.4052    0.0000 </r>
       <r>    3.6606    0.0000 </r>
       <r>    3.6930    0.0000 </r>
       <r>    4.3813    0.0000 </r>
      </set>
     </set>
     <set comment="spin 2">
      <set comment="kpoint 1">
       <r>  -17.3972    1.0000 </r>
       <r>  -16.3596    1.0000 </r>
       <r>  -15.0453    1.0000 </r>
       <r>  -15.0453    1.0000 </r>
       <r>  -15.0222    1.0000 </r>
       <r>  -15.0222    1.0000 </r>
       <r>  -11.0380    1.0000 </r>
       <r>   -9.0595    1.0000 </r>
       <r>   -8.1651    1.0000 </r>
       <r>   -8.1047    1.0000 </r>
       <r>   -8.1047    1.0000 </r>
       <r>   -7.8585    1.0000 </r>
       <r>   -7.8002    1.0000 </r>
       <r>   -7.8002    1.0000 </r>
       <r>   -6.4691    1.0000 </r>
       <r>   -5.7141    1.0000 </r>
       <r>   -5.7141    1.0000 </r>
       <r>   -5.5202    1.0000 </r>
       <r>   -5.5202    1.0000 </r>
       <r>   -4.8314    1.0000 </r>
       <r>   -4.6853    1.0000 </r>
       <r>   -4.5639    1.0000 </r>
       <r>   -4.5639    1.0000 </r>
       <r>   -4.1805    1.0000 </r>
       <r>   -4.1805    1.0000 </r>
       <r>   -4.0180    1.0000 </r>
       <r>   -3.9711    1.0000 </r>
       <r>   -3.9711    1.0000 </r>
       <r>   -3.3807    1.0000 </r>
       <r>   -3.3807    1.0000 </r>
       <r>   -3.2575    1.0000 </r>
       <r>   -2.2005    0.0000 </r>
       <r>   -2.2005    0.0000 </r>
       <r>   -1.6073    0.0000 </r>
       <r>   -1.6073    0.0000 </r>
       <r>    0.3123    0.0000 </r>
       <r>    0.7672    0.0000 </r>
       <r>    2.1356    0.0000 </r>
       <r>    2.1356    0.0000 </r>
       <r>    2.2224    0.0000 </r>
       <r>    2.3399    0.0000 </r>
       <r>    2.5706    0.0000 </r>
       <r>    3.0636    0.0000 </r>
       <r>    3.2739    0.0000 </r>
       <r>    3.6663    0.0000 </r>
       <r>    3.6663    0.0000 </r>
       <r>    3.9342    0.0000 </r>
       <r>    4.1838    0.0000 </r>
      </set>
      <set comment="kpoint 2">
       <r>  -17.2367    1.0000 </r>
       <r>  -16.2375    1.0000 </r>
       <r>  -15.3636    1.0000 </r>
[...]
        <r>  0.0001  0.0075  0.0155  0.0010  0.0000  0.0000  0.0000  0.0000  0.0000 </r>
        <r>  0.0000  0.0004  0.0000  0.0013  0.0000  0.0000  0.0000  0.0000  0.0000 </r>
        <r>  0.0001  0.0015  0.0156  0.0071  0.0000  0.0000  0.0000  0.0000  0.0000 </r>
       </set>
       <set comment="band 30">
        <r>  0.0006  0.0070  0.0003  0.0088  0.0660  0.0068  0.0830  0.0063  0.0786 </r>
        <r>  0.0006  0.0070  0.0003  0.0088  0.0660  0.0068  0.0830  0.0063  0.0786 </r>
        <r>  0.0000  0.0001  0.0000  0.0004  0.0000  0.0000  0.0000  0.0000  0.0000 </r>
        <r>  0.0000  0.0001  0.0000  0.0004  0.0000  0.0000  0.0000  0.0000  0.0000 </r>
        <r>  0.0000  0.0412  0.0053  0.0002  0.0000  0.0000  0.0000  0.0000  0.0000 </r>
        <r>  0.0000  0.0121  0.0000  0.0362  0.0000  0.0000  0.0000  0.0000  0.0000 </r>
        <r>  0.0000  0.0126  0.0053  0.0290  0.0000  0.0000  0.0000  0.0000  0.0000 </r>
        <r>  0.0000  0.0412  0.0053  0.0002  0.0000  0.0000  0.0000  0.0000  0.0000 </r>
        <r>  0.0000  0.0121  0.0000  0.0362  0.0000  0.0000  0.0000  0.0000  0.0000 </r>
        <r>  0.0000  0.0126  0.0053  0.0290  0.0000  0.0000  0.0000  0.0000  0.0000 </r>
       </set>
       <set comment="band 31">
        <r>  0.0016  0.0041  0.0000  0.0054  0.0008  0.0574  0.0282  0.0270  0.0021 </r>
        <r>  0.0016  0.0041  0.0000  0.0054  0.0008  0.0574  0.0282  0.0270  0.0021 </r>
        <r>  0.0058  0.0002  0.0588  0.0001  0.0000  0.0000  0.0000  0.0000  0.0000 </r>
        <r>  0.0058  0.0002  0.0588  0.0001  0.0000  0.0000  0.0000  0.0000  0.0000 </r>
        <r>  0.0012  0.0003  0.0197  0.0149  0.0000  0.0000  0.0000  0.0000  0.0000 </r>
        <r>  0.0020  0.0099  0.0453  0.0033  0.0000  0.0000  0.0000  0.0000  0.0000 </r>
        <r>  0.0011  0.0129  0.0196  0.0022  0.0000  0.0000  0.0000  0.0000  0.0000 </r>
        <r>  0.0012  0.0003  0.0197  0.0149  0.0000  0.0000  0.0000  0.0000  0.0000 </r>
        <r>  0.0020  0.0099  0.0453  0.0033  0.0000  0.0000  0.0000  0.0000  0.0000 </r>
        <r>  0.0011  0.0129  0.0196  0.0022  0.0000  0.0000  0.0000  0.0000  0.0000 </r>
       </set>
       <set comment="band 32">
        <r>  0.0000  0.0003  0.0000  0.0002  0.0283  0.0423  0.0010  0.1215  0.0573 </r>
        <r>  0.0000  0.0003  0.0000  0.0002  0.0283  0.0423  0.0010  0.1215  0.0573 </r>
        <r>  0.0036  0.0007  0.0109  0.0002  0.0000  0.0000  0.0000  0.0000  0.0000 </r>
        <r>  0.0036  0.0007  0.0109  0.0002  0.0000  0.0000  0.0000  0.0000  0.0000 </r>
        <r>  0.0026  0.0070  0.0142  0.0042  0.0000  0.0000  0.0000  0.0000  0.0000 </r>
        <r>  0.0094  0.0036  0.0372  0.0012  0.0000  0.0000  0.0000  0.0000  0.0000 </r>
        <r>  0.0027  0.0071  0.0141  0.0039  0.0000  0.0000  0.0000  0.0000  0.0000 </r>
        <r>  0.0026  0.0070  0.0142  0.0042  0.0000  0.0000  0.0000  0.0000  0.0000 </r>
        <r>  0.0094  0.0036  0.0372  0.0012  0.0000  0.0000  0.0000  0.0000  0.0000 </r>
        <r>  0.0027  0.0071  0.0141  0.0039  0.0000  0.0000  0.0000  0.0000  0.0000 </r>
       </set>
       <set comment="band 33">
        <r>  0.0006  0.0002  0.0007  0.0003  0.0318  0.1119  0.0046  0.0813  0.0209 </r>
        <r>  0.0006  0.0002  0.0007  0.0003  0.0318  0.1119  0.0046  0.0813  0.0209 </r>
        <r>  0.0000  0.0016  0.0000  0.0048  0.0000  0.0000  0.0000  0.0000  0.0000 </r>
        <r>  0.0000  0.0016  0.0000  0.0048  0.0000  0.0000  0.0000  0.0000  0.0000 </r>
        <r>  0.0048  0.0244  0.0142  0.0095  0.0000  0.0000  0.0000  0.0000  0.0000 </r>
        <r>  0.0000  0.0038  0.0000  0.0114  0.0000  0.0000  0.0000  0.0000  0.0000 </r>
        <r>  0.0048  0.0071  0.0143  0.0268  0.0000  0.0000  0.0000  0.0000  0.0000 </r>
        <r>  0.0048  0.0244  0.0142  0.0095  0.0000  0.0000  0.0000  0.0000  0.0000 </r>
        <r>  0.0000  0.0038  0.0000  0.0114  0.0000  0.0000  0.0000  0.0000  0.0000 </r>
        <r>  0.0048  0.0071  0.0143  0.0268  0.0000  0.0000  0.0000  0.0000  0.0000 </r>
       </set>
       <set comment="band 34">
        <r>  0.0000  0.0002  0.0002  0.0001  0.0653  0.0946  0.0051  0.0453  0.0225 </r>
        <r>  0.0000  0.0002  0.0002  0.0001  0.0653  0.0946  0.0051  0.0453  0.0225 </r>
        <r>  0.0041  0.0005  0.0031  0.0002  0.0000  0.0000  0.0000  0.0000  0.0000 </r>
        <r>  0.0041  0.0005  0.0031  0.0002  0.0000  0.0000  0.0000  0.0000  0.0000 </r>
        <r>  0.0037  0.0115  0.0386  0.0008  0.0000  0.0000  0.0000  0.0000  0.0000 </r>
        <r>  0.0019  0.0176  0.0092  0.0058  0.0000  0.0000  0.0000  0.0000  0.0000 </r>
        <r>  0.0037  0.0060  0.0385  0.0063  0.0000  0.0000  0.0000  0.0000  0.0000 </r>
        <r>  0.0037  0.0115  0.0386  0.0008  0.0000  0.0000  0.0000  0.0000  0.0000 </r>
        <r>  0.0019  0.0176  0.0092  0.0058  0.0000  0.0000  0.0000  0.0000  0.0000 </r>
        <r>  0.0037  0.0060  0.0385  0.0063  0.0000  0.0000  0.0000  0.0000  0.0000 </r>
       </set>
       <set comment="band 35">
        <r>  0.0004  0.0002  0.0003  0.0002  0.0101  0.0678  0.0002  0.1083  0.0161 </r>
        <r>  0.0004  0.0002  0.0003  0.0002  0.0101  0.0678  0.0002  0.1083  0.0161 </r>
        <r>  0.0000  0.0002  0.0000  0.0007  0.0000  0.0000  0.0000  0.0000  0.0000 </r>
        <r>  0.0000  0.0002  0.0000  0.0007  0.0000  0.0000  0.0000  0.0000  0.0000 </r>
        <r>  0.0012  0.0565  0.0019  0.0007  0.0000  0.0000  0.0000  0.0000  0.0000 </r>
        <r>  0.0000  0.0149  0.0000  0.0445  0.0000  0.0000  0.0000  0.0000  0.0000 </r>
        <r>  0.0012  0.0093  0.0019  0.0479  0.0000  0.0000  0.0000  0.0000  0.0000 </r>
        <r>  0.0012  0.0565  0.0019  0.0007  0.0000  0.0000  0.0000  0.0000  0.0000 </r>
        <r>  0.0000  0.0149  0.0000  0.0445  0.0000  0.0000  0.0000  0.0000  0.0000 </r>
        <r>  0.0012  0.0093  0.0019  0.0479  0.0000  0.0000  0.0000  0.0000  0.0000 </r>
       </set>
       <set comment="band 36">
        <r>  0.0001  0.0048  0.0003  0.0031  0.0023  0.0012  0.0000  0.0011  0.0047 </r>
        <r>  0.0001  0.0048  0.0003  0.0031  0.0023  0.0012  0.0000  0.0011  0.0047 </r>
        <r>  0.0648  0.0005  0.0253  0.0002  0.0000  0.0000  0.0000  0.0000  0.0000 </r>
        <r>  0.0648  0.0005  0.0253  0.0002  0.0000  0.0000  0.0000  0.0000  0.0000 </r>
        <r>  0.0099  0.0034  0.0010  0.0322  0.0000  0.0000  0.0000  0.0000  0.0000 </r>
        <r>  0.0051  0.0256  0.0075  0.0086  0.0000  0.0000  0.0000  0.0000  0.0000 </r>
        <r>  0.0099  0.0160  0.0010  0.0196  0.0000  0.0000  0.0000  0.0000  0.0000 </r>
        <r>  0.0099  0.0034  0.0010  0.0322  0.0000  0.0000  0.0000  0.0000  0.0000 </r>
        <r>  0.0051  0.0256  0.0075  0.0086  0.0000  0.0000  0.0000  0.0000  0.0000 </r>
        <r>  0.0099  0.0160  0.0010  0.0196  0.0000  0.0000  0.0000  0.0000  0.0000 </r>
       </set>
       <set comment="band 37">
        <r>  0.0002  0.0002  0.0000  0.0006  0.0126  0.0156  0.0008  0.0092  0.0071 </r>
        <r>  0.0002  0.0002  0.0000  0.0006  0.0126  0.0156  0.0008  0.0092  0.0071 </r>
        <r>  0.0474  0.0007  0.0456  0.0002  0.0000  0.0000  0.0000  0.0000  0.0000 </r>
        <r>  0.0474  0.0007  0.0456  0.0002  0.0000  0.0000  0.0000  0.0000  0.0000 </r>
        <r>  0.0028  0.0011  0.0100  0.0303  0.0000  0.0000  0.0000  0.0000  0.0000 </r>
        <r>  0.0010  0.0179  0.0048  0.0060  0.0000  0.0000  0.0000  0.0000  0.0000 </r>
        <r>  0.0028  0.0181  0.0100  0.0133  0.0000  0.0000  0.0000  0.0000  0.0000 </r>
        <r>  0.0028  0.0011  0.0100  0.0303  0.0000  0.0000  0.0000  0.0000  0.0000 </r>
        <r>  0.0010  0.0179  0.0048  0.0060  0.0000  0.0000  0.0000  0.0000  0.0000 </r>
        <r>  0.0028  0.0181  0.0100  0.0133  0.0000  0.0000  0.0000  0.0000  0.0000 </r>
       </set>
       <set comment="band 38">
        <r>  0.0480  0.0009  0.0022  0.0026  0.0006  0.0001  0.0022  0.0002  0.0002 </r>
        <r>  0.0480  0.0009  0.0022  0.0026  0.0006  0.0001  0.0022  0.0002  0.0002 </r>
        <r>  0.0010  0.0346  0.0004  0.0115  0.0000  0.0000  0.0000  0.0000  0.0000 </r>
        <r>  0.0010  0.0346  0.0004  0.0115  0.0000  0.0000  0.0000  0.0000  0.0000 </r>
        <r>  0.0019  0.0009  0.0015  0.0018  0.0000  0.0000  0.0000  0.0000  0.0000 </r>
        <r>  0.0148  0.0223  0.0010  0.0074  0.0000  0.0000  0.0000  0.0000  0.0000 </r>
        <r>  0.0019  0.0007  0.0015  0.0020  0.0000  0.0000  0.0000  0.0000  0.0000 </r>
        <r>  0.0019  0.0009  0.0015  0.0018  0.0000  0.0000  0.0000  0.0000  0.0000 </r>
        <r>  0.0148  0.0223  0.0010  0.0074  0.0000  0.0000  0.0000  0.0000  0.0000 </r>
        <r>  0.0019  0.0007  0.0015  0.0020  0.0000  0.0000  0.0000  0.0000  0.0000 </r>
       </set>
       <set comment="band 39">
        <r>  0.0353  0.0037  0.0021  0.0029  0.0023  0.0021  0.0032  0.0008  0.0009 </r>
        <r>  0.0353  0.0037  0.0021  0.0029  0.0023  0.0021  0.0032  0.0008  0.0009 </r>
        <r>  0.0000  0.0113  0.0000  0.0337  0.0000  0.0000  0.0000  0.0000  0.0000 </r>
        <r>  0.0000  0.0113  0.0000  0.0337  0.0000  0.0000  0.0000  0.0000  0.0000 </r>
        <r>  0.0076  0.0118  0.0004  0.0227  0.0000  0.0000  0.0000  0.0000  0.0000 </r>
        <r>  0.0000  0.0011  0.0000  0.0034  0.0000  0.0000  0.0000  0.0000  0.0000 </r>
        <r>  0.0076  0.0340  0.0004  0.0005  0.0000  0.0000  0.0000  0.0000  0.0000 </r>
        <r>  0.0076  0.0118  0.0004  0.0227  0.0000  0.0000  0.0000  0.0000  0.0000 </r>
        <r>  0.0000  0.0011  0.0000  0.0034  0.0000  0.0000  0.0000  0.0000  0.0000 </r>
        <r>  0.0076  0.0340  0.0004  0.0005  0.0000  0.0000  0.0000  0.0000  0.0000 </r>
       </set>
       <set comment="band 40">
        <r>  0.0287  0.0004  0.0053  0.0006  0.0031  0.0011  0.0032  0.0016  0.0058 </r>
        <r>  0.0287  0.0004  0.0053  0.0006  0.0031  0.0011  0.0032  0.0016  0.0058 </r>
        <r>  0.0011  0.0298  0.0024  0.0099  0.0000  0.0000  0.0000  0.0000  0.0000 </r>
        <r>  0.0011  0.0298  0.0024  0.0099  0.0000  0.0000  0.0000  0.0000  0.0000 </r>
        <r>  0.0017  0.0022  0.0042  0.0009  0.0000  0.0000  0.0000  0.0000  0.0000 </r>
        <r>  0.0192  0.0093  0.0035  0.0031  0.0000  0.0000  0.0000  0.0000  0.0000 </r>
        <r>  0.0017  0.0000  0.0042  0.0031  0.0000  0.0000  0.0000  0.0000  0.0000 </r>
        <r>  0.0017  0.0022  0.0042  0.0009  0.0000  0.0000  0.0000  0.0000  0.0000 </r>
        <r>  0.0192  0.0093  0.0035  0.0031  0.0000  0.0000  0.0000  0.0000  0.0000 </r>
        <r>  0.0017  0.0000  0.0042  0.0031  0.0000  0.0000  0.0000  0.0000  0.0000 </r>
       </set>
       <set comment="band 41">
        <r>  0.0165  0.0003  0.0029  0.0002  0.0033  0.0037  0.0019  0.0040  0.0051 </r>
        <r>  0.0165  0.0003  0.0029  0.0002  0.0033  0.0037  0.0019  0.0040  0.0051 </r>
        <r>  0.0000  0.0114  0.0000  0.0344  0.0000  0.0000  0.0000  0.0000  0.0000 </r>
        <r>  0.0000  0.0114  0.0000  0.0344  0.0000  0.0000  0.0000  0.0000  0.0000 </r>
        <r>  0.0086  0.0081  0.0028  0.0091  0.0000  0.0000  0.0000  0.0000  0.0000 </r>
        <r>  0.0000  0.0038  0.0000  0.0115  0.0000  0.0000  0.0000  0.0000  0.0000 </r>
        <r>  0.0085  0.0161  0.0029  0.0011  0.0000  0.0000  0.0000  0.0000  0.0000 </r>
        <r>  0.0086  0.0081  0.0028  0.0091  0.0000  0.0000  0.0000  0.0000  0.0000 </r>
        <r>  0.0000  0.0038  0.0000  0.0115  0.0000  0.0000  0.0000  0.0000  0.0000 </r>
        <r>  0.0085  0.0161  0.0029  0.0011  0.0000  0.0000  0.0000  0.0000  0.0000 </r>
       </set>
       <set comment="band 42">
        <r>  0.0004  0.0038  0.0008  0.0013  0.0047  0.0034  0.0003  0.0040  0.0040 </r>
        <r>  0.0004  0.0038  0.0008  0.0013  0.0047  0.0034  0.0003  0.0040  0.0040 </r>
        <r>  0.0532  0.0024  0.0246  0.0008  0.0000  0.0000  0.0000  0.0000  0.0000 </r>
        <r>  0.0532  0.0024  0.0246  0.0008  0.0000  0.0000  0.0000  0.0000  0.0000 </r>
        <r>  0.0000  0.0001  0.0085  0.0054  0.0000  0.0000  0.0000  0.0000  0.0000 </r>
        <r>  0.0021  0.0058  0.0244  0.0020  0.0000  0.0000  0.0000  0.0000  0.0000 </r>
        <r>  0.0000  0.0043  0.0085  0.0011  0.0000  0.0000  0.0000  0.0000  0.0000 </r>
        <r>  0.0000  0.0001  0.0085  0.0054  0.0000  0.0000  0.0000  0.0000  0.0000 </r>
        <r>  0.0021  0.0058  0.0244  0.0020  0.0000  0.0000  0.0000  0.0000  0.0000 </r>
        <r>  0.0000  0.0043  0.0085  0.0011  0.0000  0.0000  0.0000  0.0000  0.0000 </r>
       </set>
       <set comment="band 43">
        <r>  0.0126  0.0014  0.0082  0.0006  0.0027  0.0007  0.0075  0.0004  0.0068 </r>
        <r>  0.0126  0.0014  0.0082  0.0006  0.0027  0.0007  0.0075  0.0004  0.0068 </r>
        <r>  0.0032  0.0068  0.0028  0.0023  0.0000  0.0000  0.0000  0.0000  0.0000 </r>
        <r>  0.0032  0.0068  0.0028  0.0023  0.0000  0.0000  0.0000  0.0000  0.0000 </r>
        <r>  0.0001  0.0042  0.0001  0.0008  0.0000  0.0000  0.0000  0.0000  0.0000 </r>
        <r>  0.0040  0.0018  0.0052  0.0006  0.0000  0.0000  0.0000  0.0000  0.0000 </r>
        <r>  0.0001  0.0001  0.0001  0.0048  0.0000  0.0000  0.0000  0.0000  0.0000 </r>
        <r>  0.0001  0.0042  0.0001  0.0008  0.0000  0.0000  0.0000  0.0000  0.0000 </r>
        <r>  0.0040  0.0018  0.0052  0.0006  0.0000  0.0000  0.0000  0.0000  0.0000 </r>
        <r>  0.0001  0.0001  0.0001  0.0048  0.0000  0.0000  0.0000  0.0000  0.0000 </r>
       </set>
       <set comment="band 44">
        <r>  0.0058  0.0017  0.0067  0.0050  0.0014  0.0000  0.0001  0.0000  0.0005 </r>
        <r>  0.0058  0.0017  0.0067  0.0050  0.0014  0.0000  0.0001  0.0000  0.0005 </r>
        <r>  0.0057  0.0028  0.0022  0.0010  0.0000  0.0000  0.0000  0.0000  0.0000 </r>
        <r>  0.0057  0.0028  0.0022  0.0010  0.0000  0.0000  0.0000  0.0000  0.0000 </r>
        <r>  0.0008  0.0012  0.0013  0.0009  0.0000  0.0000  0.0000  0.0000  0.0000 </r>
        <r>  0.0009  0.0072  0.0058  0.0024  0.0000  0.0000  0.0000  0.0000  0.0000 </r>
        <r>  0.0008  0.0017  0.0013  0.0004  0.0000  0.0000  0.0000  0.0000  0.0000 </r>
        <r>  0.0008  0.0012  0.0013  0.0009  0.0000  0.0000  0.0000  0.0000  0.0000 </r>
        <r>  0.0009  0.0072  0.0058  0.0024  0.0000  0.0000  0.0000  0.0000  0.0000 </r>
        <r>  0.0008  0.0017  0.0013  0.0004  0.0000  0.0000  0.0000  0.0000  0.0000 </r>
       </set>
       <set comment="band 45">
        <r>  0.0108  0.0032  0.0070  0.0012  0.0024  0.0004  0.0020  0.0002  0.0030 </r>
        <r>  0.0108  0.0032  0.0070  0.0012  0.0024  0.0004  0.0020  0.0002  0.0030 </r>
        <r>  0.0000  0.0010  0.0000  0.0030  0.0000  0.0000  0.0000  0.0000  0.0000 </r>
        <r>  0.0000  0.0010  0.0000  0.0030  0.0000  0.0000  0.0000  0.0000  0.0000 </r>
        <r>  0.0033  0.0021  0.0082  0.0006  0.0000  0.0000  0.0000  0.0000  0.0000 </r>
        <r>  0.0000  0.0018  0.0000  0.0055  0.0000  0.0000  0.0000  0.0000  0.0000 </r>
        <r>  0.0033  0.0017  0.0082  0.0011  0.0000  0.0000  0.0000  0.0000  0.0000 </r>
        <r>  0.0033  0.0021  0.0082  0.0006  0.0000  0.0000  0.0000  0.0000  0.0000 </r>
        <r>  0.0000  0.0018  0.0000  0.0055  0.0000  0.0000  0.0000  0.0000  0.0000 </r>
        <r>  0.0033  0.0017  0.0082  0.0011  0.0000  0.0000  0.0000  0.0000  0.0000 </r>
       </set>
       <set comment="band 46">
        <r>  0.0029  0.0008  0.0019  0.0009  0.0000  0.0000  0.0028  0.0000  0.0000 </r>
        <r>  0.0029  0.0008  0.0019  0.0009  0.0000  0.0000  0.0028  0.0000  0.0000 </r>
        <r>  0.0000  0.0016  0.0000  0.0046  0.0000  0.0000  0.0000  0.0000  0.0000 </r>
        <r>  0.0000  0.0016  0.0000  0.0046  0.0000  0.0000  0.0000  0.0000  0.0000 </r>
        <r>  0.0015  0.0013  0.0019  0.0044  0.0000  0.0000  0.0000  0.0000  0.0000 </r>
        <r>  0.0000  0.0003  0.0000  0.0011  0.0000  0.0000  0.0000  0.0000  0.0000 </r>
        <r>  0.0015  0.0050  0.0017  0.0005  0.0000  0.0000  0.0000  0.0000  0.0000 </r>
        <r>  0.0015  0.0013  0.0019  0.0044  0.0000  0.0000  0.0000  0.0000  0.0000 </r>
        <r>  0.0000  0.0003  0.0000  0.0011  0.0000  0.0000  0.0000  0.0000  0.0000 </r>
        <r>  0.0015  0.0050  0.0017  0.0005  0.0000  0.0000  0.0000  0.0000  0.0000 </r>
       </set>
       <set comment="band 47">
        <r>  0.0297  0.0014  0.0117  0.0025  0.0002  0.0007  0.0021  0.0007  0.0005 </r>
        <r>  0.0297  0.0014  0.0117  0.0025  0.0002  0.0007  0.0021  0.0007  0.0005 </r>
        <r>  0.0005  0.0144  0.0039  0.0049  0.0000  0.0000  0.0000  0.0000  0.0000 </r>
        <r>  0.0005  0.0144  0.0039  0.0049  0.0000  0.0000  0.0000  0.0000  0.0000 </r>
        <r>  0.0002  0.0058  0.0072  0.0003  0.0000  0.0000  0.0000  0.0000  0.0000 </r>
        <r>  0.0011  0.0022  0.0189  0.0007  0.0000  0.0000  0.0000  0.0000  0.0000 </r>
        <r>  0.0002  0.0006  0.0074  0.0057  0.0000  0.0000  0.0000  0.0000  0.0000 </r>
        <r>  0.0002  0.0058  0.0072  0.0003  0.0000  0.0000  0.0000  0.0000  0.0000 </r>
        <r>  0.0011  0.0022  0.0189  0.0007  0.0000  0.0000  0.0000  0.0000  0.0000 </r>
        <r>  0.0002  0.0006  0.0074  0.0057  0.0000  0.0000  0.0000  0.0000  0.0000 </r>
       </set>
       <set comment="band 48">
        <r>  0.0671  0.0006  0.0002  0.0012  0.0002  0.0009  0.0051  0.0011  0.0003 </r>
        <r>  0.0671  0.0006  0.0002  0.0012  0.0002  0.0009  0.0051  0.0011  0.0003 </r>
        <r>  0.0000  0.0025  0.0000  0.0076  0.0000  0.0000  0.0000  0.0000  0.0000 </r>
        <r>  0.0000  0.0025  0.0000  0.0076  0.0000  0.0000  0.0000  0.0000  0.0000 </r>
        <r>  0.0046  0.0034  0.0210  0.0016  0.0000  0.0000  0.0000  0.0000  0.0000 </r>
        <r>  0.0000  0.0050  0.0000  0.0150  0.0000  0.0000  0.0000  0.0000  0.0000 </r>
        <r>  0.0046  0.0039  0.0210  0.0011  0.0000  0.0000  0.0000  0.0000  0.0000 </r>
        <r>  0.0046  0.0034  0.0210  0.0016  0.0000  0.0000  0.0000  0.0000  0.0000 </r>
        <r>  0.0000  0.0050  0.0000  0.0150  0.0000  0.0000  0.0000  0.0000  0.0000 </r>
        <r>  0.0046  0.0039  0.0210  0.0011  0.0000  0.0000  0.0000  0.0000  0.0000 </r>
       </set>
      </set>
     </set>
    </set>
   </array>
  </projected>
 </calculation>
 <structure name="finalpos" >
  <crystal>
   <varray name="basis" >
    <v>       5.81825442       0.00000003       0.00000000 </v>
    <v>       2.90912692       5.03875595      -0.00000000 </v>
    <v>       0.00000000      -0.00000000      21.35472295 </v>
   </varray>
   <i name="volume">    626.05137275 </i>
   <varray name="rec_basis" >
    <v>       0.17187286      -0.09923083      -0.00000000 </v>
    <v>      -0.00000000       0.19846169       0.00000000 </v>
    <v>      -0.00000000       0.00000000       0.04682805 </v>
   </varray>
  </crystal>
  <varray name="positions" >
   <v>       0.33333300       0.33333300       0.49994200 </v>
   <v>       0.66666700       0.66666700       0.50005800 </v>
   <v>      -0.00000000       0.00000000       0.44693730 </v>
   <v>      -0.00000000       0.00000000       0.55306270 </v>
   <v>       0.63581764       0.00018970       0.56990631 </v>
   <v>       0.00018970       0.36399366       0.56990631 </v>
   <v>       0.36399366       0.63581764       0.56990631 </v>
   <v>       0.36418236       0.99981030       0.43009369 </v>
   <v>       0.99981030       0.63600634       0.43009369 </v>
   <v>       0.63600634       0.36418236       0.43009369 </v>
  </varray>
  <varray name="selective"  type="logical" >
   <v type="logical" >  T  T  T </v>
   <v type="logical" >  T  T  T </v>
   <v type="logical" >  T  T  T </v>
   <v type="logical" >  T  T  T </v>
   <v type="logical" >  T  T  T </v>
   <v type="logical" >  T  T  T </v>
   <v type="logical" >  T  T  T </v>
   <v type="logical" >  T  T  T </v>
   <v type="logical" >  T  T  T </v>
   <v type="logical" >  T  T  T </v>
  </varray>
  <nose>
   <v>      -3.00000000       0.00000000       0.00010000       0.00010000 </v>
  </nose>
 </structure>
</modeling>
