unknown system                          
           1
     6.907777   -0.000000    0.000000
     3.453888    5.982310    0.000000
     0.000000    0.000000   23.444588
   Ni   Si   S 
   2   2   6
Direct configuration=     1
   0.33333300  0.33333300  0.49992500
   0.66666700  0.66666700  0.50007500
   0.00000000  0.00000000  0.44821600
   0.00000000  0.00000000  0.55178400
   0.62635700  0.00042000  0.57375200
   0.00042000  0.37322400  0.57375200
   0.37322400  0.62635700  0.57375200
   0.37364300  0.99958000  0.42624800
   0.99958000  0.62677600  0.42624800
   0.62677600  0.37364300  0.42624800
unknown system                          
           1
     5.869811    0.000000    0.000000
     2.934905    5.083406   -0.000000
     0.000000    0.000000   21.547138
   Ni   Si   S 
   2   2   6
Direct configuration=     2
   0.33333300  0.33333300  0.49994356
   0.66666700  0.66666700  0.50005644
  -0.00000000  0.00000000  0.44779725
  -0.00000000  0.00000000  0.55220275
   0.63588688  0.00038867  0.57033487
   0.00038867  0.36372545  0.57033487
   0.36372545  0.63588688  0.57033487
   0.36411312  0.99961133  0.42966513
   0.99961133  0.63627455  0.42966513
   0.63627455  0.36411312  0.42966513
unknown system                          
           1
     5.815530    0.000000    0.000000
     2.907765    5.036396   -0.000000
     0.000000    0.000000   21.447909
   Ni   Si   S 
   2   2   6
Direct configuration=     3
   0.33333300  0.33333300  0.49994461
   0.66666700  0.66666700  0.50005539
  -0.00000000  0.00000000  0.44777343
  -0.00000000  0.00000000  0.55222657
   0.63647338  0.00038674  0.57014043
   0.00038674  0.36314087  0.57014043
   0.36314087  0.63647338  0.57014043
   0.36352662  0.99961326  0.42985957
   0.99961326  0.63685913  0.42985957
   0.63685913  0.36352662  0.42985957
unknown system                          
           1
     5.816691    0.000000    0.000000
     2.908345    5.037402   -0.000000
     0.000000    0.000000   21.431343
   Ni   Si   S 
   2   2   6
Direct configuration=     4
   0.33333300  0.33333300  0.49993934
   0.66666700  0.66666700  0.50006066
  -0.00000000  0.00000000  0.44696766
  -0.00000000  0.00000000  0.55303234
   0.63611270  0.00028480  0.57001356
   0.00028480  0.36360351  0.57001356
   0.36360351  0.63611270  0.57001356
   0.36388730  0.99971520  0.42998644
   0.99971520  0.63639649  0.42998644
   0.63639649  0.36388730  0.42998644
unknown system                          
           1
     5.816692    0.000000    0.000000
     2.908346    5.037403   -0.000000
     0.000000    0.000000   21.431330
   Ni   Si   S 
   2   2   6
Direct configuration=     5
   0.33333300  0.33333300  0.49993933
   0.66666700  0.66666700  0.50006067
  -0.00000000  0.00000000  0.44696699
  -0.00000000  0.00000000  0.55303301
   0.63611240  0.00028471  0.57001346
   0.00028471  0.36360389  0.57001346
   0.36360389  0.63611240  0.57001346
   0.36388760  0.99971529  0.42998654
   0.99971529  0.63639611  0.42998654
   0.63639611  0.36388760  0.42998654
unknown system                          
           1
     5.818069    0.000000    0.000000
     2.909034    5.038596   -0.000000
     0.000000   -0.000000   21.363795
   Ni   Si   S 
   2   2   6
Direct configuration=     6
   0.33333300  0.33333300  0.49994168
   0.66666700  0.66666700  0.50005832
  -0.00000000  0.00000000  0.44694083
  -0.00000000  0.00000000  0.55305917
   0.63585254  0.00020095  0.56991903
   0.00020095  0.36394751  0.56991903
   0.36394751  0.63585254  0.56991903
   0.36414746  0.99979905  0.43008097
   0.99979905  0.63605249  0.43008097
   0.63605249  0.36414746  0.43008097
unknown system                          
           1
     5.818254    0.000000    0.000000
     2.909127    5.038756   -0.000000
     0.000000   -0.000000   21.354723
   Ni   Si   S 
   2   2   6
Direct configuration=     7
   0.33333300  0.33333300  0.49994200
   0.66666700  0.66666700  0.50005800
  -0.00000000  0.00000000  0.44693730
  -0.00000000  0.00000000  0.55306270
   0.63581764  0.00018970  0.56990631
   0.00018970  0.36399366  0.56990631
   0.36399366  0.63581764  0.56990631
   0.36418236  0.99981030  0.43009369
   0.99981030  0.63600634  0.43009369
   0.63600634  0.36418236  0.43009369
