       N       E                     dE             d eps       ncg     rms          rms(c)
DAV:   1     0.401003427799E+03    0.40100E+03   -0.19784E+04   960   0.964E+02
DAV:   2     0.117423740282E+02   -0.38926E+03   -0.37451E+03  1424   0.196E+02
DAV:   3    -0.318457640716E+02   -0.43588E+02   -0.43053E+02  1280   0.654E+01
DAV:   4    -0.335029773707E+02   -0.16572E+01   -0.16551E+01  1264   0.150E+01
DAV:   5    -0.335313265829E+02   -0.28349E-01   -0.28344E-01  1424   0.223E+00    0.145E+01
DAV:   6    -0.434877903950E+02   -0.99565E+01   -0.61354E+01  1104   0.973E+01    0.247E+01
DAV:   7    -0.321836230792E+02    0.11304E+02   -0.20982E+01  1072   0.558E+01    0.691E+00
DAV:   8    -0.322506858581E+02   -0.67063E-01   -0.67625E+00  1360   0.291E+01    0.752E+00
DAV:   9    -0.321465641757E+02    0.10412E+00   -0.29256E+00  1248   0.205E+01    0.398E+00
DAV:  10    -0.321465910186E+02   -0.26843E-04   -0.46464E-01  1328   0.919E+00    0.255E+00
DAV:  11    -0.321453664459E+02    0.12246E-02   -0.28534E-01  1136   0.743E+00    0.158E+00
DAV:  12    -0.322243097655E+02   -0.78943E-01   -0.15366E-01  1088   0.444E+00    0.143E+00
DAV:  13    -0.323120137498E+02   -0.87704E-01   -0.59354E-02  1152   0.203E+00    0.867E-01
DAV:  14    -0.323125650440E+02   -0.55129E-03   -0.47099E-02  1104   0.185E+00    0.265E-01
DAV:  15    -0.323132127284E+02   -0.64768E-03   -0.65489E-03  1040   0.783E-01    0.197E-01
DAV:  16    -0.323154098066E+02   -0.21971E-02   -0.21980E-03   976   0.550E-01    0.153E-01
DAV:  17    -0.323153294301E+02    0.80377E-04   -0.91013E-04  1024   0.410E-01
   1 F= -.32315329E+02 E0= -.32315329E+02  d E =-.323153E+02  mag=     2.6015
       N       E                     dE             d eps       ncg     rms          rms(c)
DAV:   1    -0.433221658749E+02   -0.11007E+02   -0.10028E+02  1184   0.941E+01    0.365E+01
DAV:   2    -0.911051327078E+02   -0.47783E+02   -0.30627E+02   960   0.225E+02    0.377E+01
DAV:   3    -0.385157555248E+02    0.52589E+02   -0.11582E+02  1024   0.822E+01    0.169E+01
DAV:   4    -0.332849571204E+02    0.52308E+01   -0.29394E+01  1184   0.834E+01    0.126E+01
DAV:   5    -0.446590043640E+02   -0.11374E+02   -0.11565E+02  1520   0.428E+01    0.169E+01
DAV:   6    -0.332607198196E+02    0.11398E+02   -0.74658E+02  1024   0.698E+01    0.914E+00
DAV:   7    -0.327148411589E+02    0.54588E+00   -0.71553E-01  1232   0.145E+01    0.470E+00
DAV:   8    -0.327088560197E+02    0.59851E-02   -0.34867E-01  1408   0.589E+00    0.395E+00
DAV:   9    -0.325840031571E+02    0.12485E+00   -0.17376E-01  1328   0.655E+00    0.160E+00
DAV:  10    -0.325730924485E+02    0.10911E-01   -0.80924E-02  1456   0.265E+00    0.486E-01
DAV:  11    -0.325817933111E+02   -0.87009E-02   -0.22556E-02  1344   0.142E+00    0.412E-01
DAV:  12    -0.325874978068E+02   -0.57045E-02   -0.11336E-02  1152   0.129E+00    0.210E-01
DAV:  13    -0.325894983542E+02   -0.20005E-02   -0.85312E-03  1088   0.155E+00    0.462E-01
DAV:  14    -0.325878676496E+02    0.16307E-02   -0.48092E-03  1088   0.112E+00    0.487E-02
DAV:  15    -0.325881839486E+02   -0.31630E-03   -0.11563E-03  1088   0.158E-01    0.578E-02
DAV:  16    -0.325890217581E+02   -0.83781E-03   -0.10761E-03  1088   0.374E-01    0.103E-01
DAV:  17    -0.325876344438E+02    0.13873E-02   -0.13440E-03  1088   0.229E-01    0.538E-02
DAV:  18    -0.325866753487E+02    0.95910E-03   -0.98115E-04  1040   0.169E-01    0.470E-02
DAV:  19    -0.325860651957E+02    0.61015E-03   -0.40067E-04  1040   0.177E-01    0.605E-02
DAV:  20    -0.325858748637E+02    0.19033E-03   -0.10897E-04   896   0.112E-01    0.542E-02
DAV:  21    -0.325864047474E+02   -0.52988E-03   -0.83489E-05   848   0.653E-02    0.594E-02
DAV:  22    -0.325865025220E+02   -0.97775E-04   -0.98143E-05   848   0.818E-02
   2 F= -.32586503E+02 E0= -.32586503E+02  d E =-.271173E+00  mag=     1.1238
       N       E                     dE             d eps       ncg     rms          rms(c)
DAV:   1    -0.333455045716E+02   -0.75910E+00   -0.72246E+00  1200   0.265E+01    0.796E+00
DAV:   2    -0.382722898822E+02   -0.49268E+01   -0.18361E+01  1264   0.679E+01    0.264E+01
DAV:   3    -0.329281917611E+02    0.53441E+01   -0.12140E+01  1088   0.418E+01    0.509E+00
DAV:   4    -0.326621548136E+02    0.26604E+00   -0.98725E-01  1120   0.107E+01    0.174E+00
DAV:   5    -0.326658068654E+02   -0.36521E-02   -0.15589E-01  1344   0.442E+00    0.227E+00
DAV:   6    -0.326371467141E+02    0.28660E-01   -0.70192E-02  1088   0.333E+00    0.775E-01
DAV:   7    -0.326315754046E+02    0.55713E-02   -0.20101E-02  1360   0.154E+00    0.452E-01
DAV:   8    -0.326306386851E+02    0.93672E-03   -0.80777E-03  1424   0.759E-01    0.152E-01
DAV:   9    -0.326311349312E+02   -0.49625E-03   -0.11047E-03  1120   0.309E-01    0.888E-02
DAV:  10    -0.326314722149E+02   -0.33728E-03   -0.73184E-04   992   0.215E-01    0.588E-02
DAV:  11    -0.326508999569E+02   -0.19428E-01   -0.30092E-04   784   0.148E-01    0.580E-02
DAV:  12    -0.326577046387E+02   -0.68047E-02   -0.13531E-04   768   0.602E-02    0.697E-02
DAV:  13    -0.325607221263E+02    0.96983E-01   -0.15138E-04   832   0.113E-01    0.156E-01
DAV:  14    -0.326604834790E+02   -0.99761E-01   -0.17639E-03  1072   0.136E-01    0.968E-02
DAV:  15    -0.325902209764E+02    0.70263E-01   -0.15887E-03  1104   0.111E-01    0.148E-01
DAV:  16    -0.325945612271E+02   -0.43403E-02   -0.57304E-04  1152   0.724E-02    0.158E-01
DAV:  17    -0.326006650317E+02   -0.61038E-02   -0.26765E-05   800   0.379E-02    0.151E-01
DAV:  18    -0.326127755362E+02   -0.12111E-01   -0.39267E-05   816   0.265E-02    0.153E-01
DAV:  19    -0.326740704239E+02   -0.61295E-01   -0.95487E-05   960   0.402E-02    0.108E-01
DAV:  20    -0.325823002278E+02    0.91770E-01   -0.32085E-04   880   0.739E-02    0.150E-01
DAV:  21    -0.325889081081E+02   -0.66079E-02   -0.12587E-03  1056   0.947E-02    0.148E-01
DAV:  22    -0.326500983285E+02   -0.61190E-01   -0.68152E-05   912   0.422E-02    0.775E-02
DAV:  23    -0.326341545234E+02    0.15944E-01   -0.84904E-04  1136   0.709E-02    0.599E-02
DAV:  24    -0.325624386577E+02    0.71716E-01   -0.56131E-05   848   0.301E-02    0.149E-01
DAV:  25    -0.326428692245E+02   -0.80431E-01   -0.21626E-03  1088   0.968E-02    0.750E-02
DAV:  26    -0.325637644946E+02    0.79105E-01   -0.19984E-03  1072   0.952E-02    0.152E-01
DAV:  27    -0.325706000699E+02   -0.68356E-02   -0.25077E-03  1088   0.104E-01    0.152E-01
DAV:  28    -0.326407279353E+02   -0.70128E-01   -0.10719E-04  1056   0.348E-02    0.720E-02
DAV:  29    -0.326308283635E+02    0.98996E-02   -0.18531E-03  1136   0.880E-02    0.626E-02
DAV:  30    -0.326313872188E+02   -0.55886E-03   -0.59248E-05   928   0.273E-02    0.655E-02
DAV:  31    -0.326314116269E+02   -0.24408E-04   -0.52904E-06   816   0.219E-02
   3 F= -.32631412E+02 E0= -.32631412E+02  d E =-.316082E+00  mag=     0.7524
       N       E                     dE             d eps       ncg     rms          rms(c)
DAV:   1    -0.327767140692E+02   -0.14533E+00   -0.25796E+00  1152   0.857E+00    0.268E+00
DAV:   2    -0.331705343116E+02   -0.39382E+00   -0.16255E+00  1024   0.202E+01    0.623E+00
DAV:   3    -0.326857419783E+02    0.48479E+00   -0.99209E-01  1088   0.185E+01    0.900E-01
DAV:   4    -0.327321819664E+02   -0.46440E-01   -0.28597E-01  1408   0.612E+00    0.356E+00
DAV:   5    -0.326722180407E+02    0.59964E-01   -0.19195E-01  1104   0.542E+00    0.517E-01
DAV:   6    -0.326738664541E+02   -0.16484E-02   -0.19949E-02  1168   0.131E+00    0.396E-01
DAV:   7    -0.326737052997E+02    0.16115E-03   -0.30224E-03  1120   0.514E-01    0.143E-01
DAV:   8    -0.326740576344E+02   -0.35233E-03   -0.38793E-04   944   0.139E-01    0.165E-01
DAV:   9    -0.326737755007E+02    0.28213E-03   -0.18443E-04   848   0.115E-01    0.177E-01
DAV:  10    -0.326752676737E+02   -0.14922E-02   -0.36495E-03  1024   0.610E-01    0.157E-01
DAV:  11    -0.326753507552E+02   -0.83082E-04   -0.40991E-04  1024   0.160E-01
   4 F= -.32675351E+02 E0= -.32675351E+02  d E =-.439391E-01  mag=     0.7480
       N       E                     dE             d eps       ncg     rms          rms(c)
DAV:   1    -0.337949868921E+02   -0.11197E+01   -0.24091E+01  1120   0.265E+01    0.879E+00
DAV:   2    -0.374775946873E+02   -0.36826E+01   -0.17179E+01  1120   0.631E+01    0.163E+01
DAV:   3    -0.327819235744E+02    0.46957E+01   -0.85696E+00  1056   0.555E+01    0.199E+00
DAV:   4    -0.330827388165E+02   -0.30082E+00   -0.37074E+00  1376   0.149E+01    0.665E+00
DAV:   5    -0.329552001452E+02    0.12754E+00   -0.84814E-01  1296   0.878E+00    0.520E+00
DAV:   6    -0.327503217938E+02    0.20488E+00   -0.44911E-01  1120   0.839E+00    0.698E-01
DAV:   7    -0.327478503161E+02    0.24715E-02   -0.57489E-02  1200   0.122E+00    0.452E-01
DAV:   8    -0.327510090558E+02   -0.31587E-02   -0.87986E-03  1120   0.798E-01    0.237E-01
DAV:   9    -0.327537261706E+02   -0.27171E-02   -0.57878E-03  1024   0.462E-01    0.198E-01
DAV:  10    -0.327562820076E+02   -0.25558E-02   -0.10279E-02  1024   0.670E-01    0.237E-01
DAV:  11    -0.327324595737E+02    0.23822E-01   -0.10133E-02  1040   0.835E-01    0.210E-01
DAV:  12    -0.327774310729E+02   -0.44971E-01   -0.12594E-03  1008   0.267E-01    0.265E-01
DAV:  13    -0.327579293707E+02    0.19502E-01   -0.40102E-03   992   0.491E-01    0.270E-01
DAV:  14    -0.327360455409E+02    0.21884E-01   -0.50035E-03   992   0.611E-01    0.269E-01
DAV:  15    -0.327521938547E+02   -0.16148E-01   -0.53646E-03  1184   0.548E-01    0.195E-01
DAV:  16    -0.327513889297E+02    0.80492E-03   -0.37600E-03  1264   0.491E-01    0.161E-01
DAV:  17    -0.327512844887E+02    0.10444E-03   -0.12420E-03  1200   0.264E-01    0.135E-01
DAV:  18    -0.327501067370E+02    0.11778E-02   -0.18814E-03   992   0.266E-01    0.143E-01
DAV:  19    -0.327495654293E+02    0.54131E-03   -0.50991E-04   944   0.203E-01    0.945E-02
DAV:  20    -0.327485085356E+02    0.10569E-02   -0.48022E-04   960   0.195E-01    0.550E-02
DAV:  21    -0.327478024627E+02    0.70607E-03   -0.15999E-04   992   0.586E-02    0.535E-02
DAV:  22    -0.327477583282E+02    0.44135E-04   -0.78809E-05   912   0.801E-02
   5 F= -.32747758E+02 E0= -.32747758E+02  d E =-.116347E+00  mag=     0.0106
       N       E                     dE             d eps       ncg     rms          rms(c)
DAV:   1    -0.328080336820E+02   -0.60231E-01   -0.13304E+00  1104   0.656E+00    0.202E+00
DAV:   2    -0.330237585323E+02   -0.21572E+00   -0.87169E-01  1056   0.166E+01    0.476E+00
DAV:   3    -0.327541275246E+02    0.26963E+00   -0.51327E-01  1040   0.144E+01    0.590E-01
DAV:   4    -0.327527118978E+02    0.14156E-02   -0.10331E-01  1344   0.274E+00    0.126E+00
DAV:   5    -0.327445156132E+02    0.81963E-02   -0.35473E-02  1264   0.287E+00    0.402E-01
DAV:   6    -0.327430181645E+02    0.14974E-02   -0.52027E-03  1120   0.933E-01    0.857E-02
DAV:   7    -0.327435950947E+02   -0.57693E-03   -0.75480E-04  1072   0.209E-01    0.494E-02
DAV:   8    -0.327444229378E+02   -0.82784E-03   -0.48394E-04   992   0.104E-01    0.213E-02
DAV:   9    -0.327452923632E+02   -0.86943E-03   -0.50328E-04  1008   0.106E-01    0.361E-02
DAV:  10    -0.327463182223E+02   -0.10259E-02   -0.12463E-03   992   0.132E-01    0.234E-02
DAV:  11    -0.327466089431E+02   -0.29072E-03   -0.41196E-04  1056   0.632E-02    0.132E-02
DAV:  12    -0.327465411135E+02    0.67830E-04   -0.37462E-04   848   0.457E-02
   6 F= -.32746541E+02 E0= -.32746541E+02  d E =-.115129E+00  mag=    -0.0009
       N       E                     dE             d eps       ncg     rms          rms(c)
DAV:   1    -0.328153583484E+02   -0.68749E-01   -0.33223E+00   960   0.102E+01    0.237E+00
DAV:   2    -0.331714678969E+02   -0.35611E+00   -0.13759E+00  1216   0.196E+01    0.643E+00
DAV:   3    -0.327851714113E+02    0.38630E+00   -0.83152E-01  1040   0.158E+01    0.122E+00
DAV:   4    -0.327716421435E+02    0.13529E-01   -0.85999E-02  1104   0.286E+00    0.717E-01
DAV:   5    -0.327704179549E+02    0.12242E-02   -0.26008E-02  1312   0.243E+00    0.598E-01
DAV:   6    -0.327678315682E+02    0.25864E-02   -0.82391E-03  1200   0.130E+00    0.769E-02
DAV:   7    -0.327675293617E+02    0.30221E-03   -0.10718E-03  1232   0.208E-01    0.672E-02
DAV:   8    -0.327673946464E+02    0.13472E-03   -0.14089E-04   688   0.132E-01    0.197E-02
DAV:   9    -0.327673168870E+02    0.77759E-04   -0.39942E-05   704   0.460E-02
   7 F= -.32767317E+02 E0= -.32767317E+02  d E =-.207758E-01  mag=     0.0005
       N       E                     dE             d eps       ncg     rms          rms(c)
DAV:   1    -0.327680001944E+02   -0.60555E-03   -0.36103E-02  1024   0.104E+00    0.254E-01
DAV:   2    -0.327719930728E+02   -0.39929E-02   -0.15679E-02   992   0.207E+00    0.633E-01
DAV:   3    -0.327676191510E+02    0.43739E-02   -0.90328E-03   960   0.182E+00    0.107E-01
DAV:   4    -0.327678346096E+02   -0.21546E-03   -0.17559E-03  1280   0.512E-01    0.223E-01
DAV:   5    -0.327675617058E+02    0.27290E-03   -0.97246E-04   880   0.474E-01    0.424E-02
DAV:   6    -0.327675525958E+02    0.91100E-05   -0.10162E-04   656   0.109E-01
   8 F= -.32767553E+02 E0= -.32767553E+02  d E =-.210115E-01  mag=     0.0004
       N       E                     dE             d eps       ncg     rms          rms(c)
DAV:   1    -0.327980868488E+02   -0.30525E-01   -0.65650E-01  1104   0.545E+00    0.151E+00
DAV:   2    -0.329246586342E+02   -0.12657E+00   -0.49956E-01  1088   0.121E+01    0.354E+00
DAV:   3    -0.327759238668E+02    0.14873E+00   -0.29154E-01  1088   0.107E+01    0.511E-01
DAV:   4    -0.327740226385E+02    0.19012E-02   -0.37107E-02  1248   0.122E+00    0.461E-01
DAV:   5    -0.327733081426E+02    0.71450E-03   -0.78135E-03  1312   0.129E+00    0.323E-01
DAV:   6    -0.327725232386E+02    0.78490E-03   -0.23557E-03  1040   0.693E-01    0.484E-02
DAV:   7    -0.327724612884E+02    0.61950E-04   -0.36116E-04   944   0.116E-01
   9 F= -.32772461E+02 E0= -.32772461E+02  d E =-.490869E-02  mag=     0.0004
       N       E                     dE             d eps       ncg     rms          rms(c)
DAV:   1    -0.327724393801E+02    0.83859E-04   -0.49509E-04  1008   0.143E-01    0.337E-02
DAV:   2    -0.327724914729E+02   -0.52093E-04   -0.20856E-04   800   0.239E-01
  10 F= -.32772491E+02 E0= -.32772491E+02  d E =-.493888E-02  mag=     0.0004
       N       E                     dE             d eps       ncg     rms          rms(c)
DAV:   1    -0.327724496963E+02   -0.10316E-04   -0.42064E-04   992   0.202E-01    0.521E-02
DAV:   2    -0.327730396202E+02   -0.58992E-03   -0.20715E-03   960   0.720E-01    0.307E-01
DAV:   3    -0.327724344395E+02    0.60518E-03   -0.18480E-03   944   0.657E-01    0.497E-02
DAV:   4    -0.327724536248E+02   -0.19185E-04   -0.12077E-04   720   0.130E-01
  11 F= -.32772454E+02 E0= -.32772454E+02  d E =-.490103E-02  mag=     0.0004
