 vasp.5.4.4.18Apr17-6-g9f103f2a35 (build May  1 2020 15:48:39) complex           
 executed on             LinuxGNU date 2020.06.19  21:47:25
 running on   16 total cores
 distrk:  each k-point on   16 cores,    1 groups
 distr:  one band on NCORES_PER_BAND=   1 cores,   16 groups


--------------------------------------------------------------------------------------------------------


 INCAR:
 POTCAR:   PAW_PBE Ni 06Sep2000                   
 POTCAR:    PAW_PBE P 17Jan2003                   
 POTCAR:   PAW_PBE Ge 05Jan2001                   
 POTCAR:   PAW_PBE Te 08Apr2002                   

 ----------------------------------------------------------------------------- 
|                                                                             |
|           W    W    AA    RRRRR   N    N  II  N    N   GGGG   !!!           |
|           W    W   A  A   R    R  NN   N  II  NN   N  G    G  !!!           |
|           W    W  A    A  R    R  N N  N  II  N N  N  G       !!!           |
|           W WW W  AAAAAA  RRRRR   N  N N  II  N  N N  G  GGG   !            |
|           WW  WW  A    A  R   R   N   NN  II  N   NN  G    G                |
|           W    W  A    A  R    R  N    N  II  N    N   GGGG   !!!           |
|                                                                             |
|      For optimal performance we recommend to set                            |
|        NCORE= 4 - approx SQRT( number of cores)                             |
|      NCORE specifies how many cores store one orbital (NPAR=cpu/NCORE).     |
|      This setting can  greatly improve the performance of VASP for DFT.     |
|      The default,   NCORE=1            might be grossly inefficient         |
|      on modern multi-core architectures or massively parallel machines.     |
|      Do your own testing !!!!                                               |
|      Unfortunately you need to use the default for GW and RPA calculations. |
|      (for HF NCORE is supported but not extensively tested yet)             |
|                                                                             |
 ----------------------------------------------------------------------------- 


 ----------------------------------------------------------------------------- 
|                                                                             |
|  ADVICE TO THIS USER RUNNING 'VASP/VAMP'   (HEAR YOUR MASTER'S VOICE ...):  |
|                                                                             |
|      You have switched on vdW-DFT.                                          |
|      This routine was written and supplied by Jiri Klimes.                  |
|      We recommed that you carefully read and cite the following             |
|      publication                                                            |
|      J. Klimes, D.R. Bowler, A. Michelides                                  |
|        J. Phys.: Cond Matt. 22 022201 (2010)                                |
|      J. Klimes, D.R. Bowler, A. Michelides                                  |
|        Phys. Rev. B. 83, 195131 (2011)                                      |
|      and references therein.                                                |
|                                                                             |
 ----------------------------------------------------------------------------- 

 POTCAR:   PAW_PBE Ni 06Sep2000                   
   VRHFIN =Ni:                                                                  
   LEXCH  = PE                                                                  
   EATOM  =  1077.9025 eV,   79.2236 Ry                                         
                                                                                
   TITEL  = PAW_PBE Ni 06Sep2000                                                
   LULTRA =        F    use ultrasoft PP ?                                      
   IUNSCR =        1    unscreen: 0-lin 1-nonlin 2-no                           
   RPACOR =    2.000    partial core radius                                     
   POMASS =   58.690; ZVAL   =   10.000    mass and valenz                      
   RCORE  =    2.300    outmost cutoff radius                                   
   RWIGS  =    2.430; RWIGS  =    1.286    wigner-seitz radius (au A)           
   ENMAX  =  269.533; ENMIN  =  202.150 eV                                      
   RCLOC  =    1.681    cutoff for local pot                                    
   LCOR   =        T    correct aug charges                                     
   LPAW   =        T    paw PP                                                  
   EAUG   =  544.565                                                            
   DEXC   =    -.009                                                            
   RMAX   =    2.808    core radius for proj-oper                               
   RAUG   =    1.300    factor for augmentation sphere                          
   RDEP   =    2.390    radius for radial grids                                 
   QCUT   =   -4.451; QGAM   =    8.902    optimization parameters              
                                                                                
   Description                                                                  
     l     E      TYP  RCUT    TYP  RCUT                                        
     2   .000     23  2.300                                                     
     2   .000     23  2.300                                                     
     0   .000     23  2.300                                                     
     0   .000     23  2.300                                                     
     1  -.200     23  2.300                                                     
     1   .000     23  2.300                                                     
     3   .000      7   .000                                                     
  local pseudopotential read in
  partial core-charges read in
  atomic valenz-charges read in
  non local Contribution for L=           2  read in
    real space projection operators read in
  non local Contribution for L=           2  read in
    real space projection operators read in
  non local Contribution for L=           0  read in
    real space projection operators read in
  non local Contribution for L=           0  read in
    real space projection operators read in
  non local Contribution for L=           1  read in
    real space projection operators read in
  non local Contribution for L=           1  read in
    real space projection operators read in
    PAW grid and wavefunctions read in

   number of l-projection  operators is LMAX  =           6
   number of lm-projection operators is LMMAX =          18

 POTCAR:    PAW_PBE P 17Jan2003                   
   VRHFIN =P : s2p3                                                             
   LEXCH  = PE                                                                  
   EATOM  =   176.0430 eV,   12.9388 Ry                                         
                                                                                
   TITEL  = PAW_PBE P 17Jan2003                                                 
   LULTRA =        F    use ultrasoft PP ?                                      
   IUNSCR =        1    unscreen: 0-lin 1-nonlin 2-no                           
   RPACOR =    1.500    partial core radius                                     
   POMASS =   30.974; ZVAL   =    5.000    mass and valenz                      
   RCORE  =    1.900    outmost cutoff radius                                   
   RWIGS  =    2.330; RWIGS  =    1.233    wigner-seitz radius (au A)           
   ENMAX  =  270.000; ENMIN  =  191.280 eV                                      
   ICORE  =        2    local potential                                         
   LCOR   =        T    correct aug charges                                     
   LPAW   =        T    paw PP                                                  
   EAUG   =  342.924                                                            
   DEXC   =    -.002                                                            
   RMAX   =    2.887    core radius for proj-oper                               
   RAUG   =    1.300    factor for augmentation sphere                          
   RDEP   =    1.931    radius for radial grids                                 
   QCUT   =   -4.330; QGAM   =    8.659    optimization parameters              
                                                                                
   Description                                                                  
     l     E      TYP  RCUT    TYP  RCUT                                        
     0   .000     23  1.900                                                     
     0   .000     23  1.900                                                     
     1   .000     23  1.900                                                     
     1   .000     23  1.900                                                     
     2   .000     23  1.900                                                     
  local pseudopotential read in
  partial core-charges read in
  atomic valenz-charges read in
  non local Contribution for L=           0  read in
    real space projection operators read in
  non local Contribution for L=           0  read in
    real space projection operators read in
  non local Contribution for L=           1  read in
    real space projection operators read in
  non local Contribution for L=           1  read in
    real space projection operators read in
    PAW grid and wavefunctions read in

   number of l-projection  operators is LMAX  =           4
   number of lm-projection operators is LMMAX =           8

 POTCAR:   PAW_PBE Ge 05Jan2001                   
   VRHFIN =Ge: s2p2                                                             
   LEXCH  = PE                                                                  
   EATOM  =   104.9960 eV,    7.7170 Ry                                         
                                                                                
   TITEL  = PAW_PBE Ge 05Jan2001                                                
   LULTRA =        F    use ultrasoft PP ?                                      
   IUNSCR =        1    unscreen: 0-lin 1-nonlin 2-no                           
   RPACOR =    2.170    partial core radius                                     
   POMASS =   72.610; ZVAL   =    4.000    mass and valenz                      
   RCORE  =    2.300    outmost cutoff radius                                   
   RWIGS  =    2.300; RWIGS  =    1.217    wigner-seitz radius (au A)           
   ENMAX  =  173.807; ENMIN  =  130.355 eV                                      
   ICORE  =        3    local potential                                         
   LCOR   =        T    correct aug charges                                     
   LPAW   =        T    paw PP                                                  
   EAUG   =  385.843                                                            
   DEXC   =    -.138                                                            
   RMAX   =    3.497    core radius for proj-oper                               
   RAUG   =    1.300    factor for augmentation sphere                          
   RDEP   =    2.318    radius for radial grids                                 
   QCUT   =   -3.574; QGAM   =    7.148    optimization parameters              
                                                                                
   Description                                                                  
     l     E      TYP  RCUT    TYP  RCUT                                        
     0   .000     23  2.300                                                     
     0   .000     23  2.300                                                     
     1   .000     23  2.300                                                     
     1   .000     23  2.300                                                     
     2   .000     23  2.300                                                     
     3  -.100      7  2.300                                                     
  local pseudopotential read in
  partial core-charges read in
  atomic valenz-charges read in
  non local Contribution for L=           0  read in
    real space projection operators read in
  non local Contribution for L=           0  read in
    real space projection operators read in
  non local Contribution for L=           1  read in
    real space projection operators read in
  non local Contribution for L=           1  read in
    real space projection operators read in
  non local Contribution for L=           2  read in
    real space projection operators read in
    PAW grid and wavefunctions read in

   number of l-projection  operators is LMAX  =           5
   number of lm-projection operators is LMMAX =          13

 POTCAR:   PAW_PBE Te 08Apr2002                   
   VRHFIN =Te: s2p4                                                             
   LEXCH  = PE                                                                  
   EATOM  =   223.2721 eV,   16.4100 Ry                                         
                                                                                
   TITEL  = PAW_PBE Te 08Apr2002                                                
   LULTRA =        F    use ultrasoft PP ?                                      
   IUNSCR =        1    unscreen: 0-lin 1-nonlin 2-no                           
   RPACOR =    2.200    partial core radius                                     
   POMASS =  127.600; ZVAL   =    6.000    mass and valenz                      
   RCORE  =    2.300    outmost cutoff radius                                   
   RWIGS  =    2.900; RWIGS  =    1.535    wigner-seitz radius (au A)           
   ENMAX  =  174.982; ENMIN  =  131.236 eV                                      
   ICORE  =        3    local potential                                         
   LCOR   =        T    correct aug charges                                     
   LPAW   =        T    paw PP                                                  
   EAUG   =  368.792                                                            
   DEXC   =    -.169                                                            
   RMAX   =    3.486    core radius for proj-oper                               
   RAUG   =    1.300    factor for augmentation sphere                          
   RDEP   =    2.397    radius for radial grids                                 
   QCUT   =   -3.586; QGAM   =    7.172    optimization parameters              
                                                                                
   Description                                                                  
     l     E      TYP  RCUT    TYP  RCUT                                        
     0   .000     23  2.300                                                     
     0   .000     23  2.300                                                     
     1   .000     23  2.300                                                     
     1   .000     23  2.300                                                     
     2   .000     23  2.300                                                     
     3  -.100     23  2.300                                                     
  local pseudopotential read in
  partial core-charges read in
  atomic valenz-charges read in
  non local Contribution for L=           0  read in
    real space projection operators read in
  non local Contribution for L=           0  read in
    real space projection operators read in
  non local Contribution for L=           1  read in
    real space projection operators read in
  non local Contribution for L=           1  read in
    real space projection operators read in
  non local Contribution for L=           2  read in
    real space projection operators read in
    PAW grid and wavefunctions read in

   number of l-projection  operators is LMAX  =           5
   number of lm-projection operators is LMMAX =          13

 Optimization of the real space projectors (new method)

 maximal supplied QI-value         = 16.25
 optimisation between [QCUT,QGAM] = [ 11.54, 23.24] = [ 37.28,151.24] Ry 
 Optimized for a Real-space Cutoff    1.49 Angstroem

   l    n(q)    QCUT    max X(q) W(low)/X(q) W(high)/X(q)  e(spline) 
   2      9    11.539     4.811    0.20E-04    0.14E-04    0.45E-07
   2      9    11.539    15.146    0.24E-03    0.12E-03    0.20E-06
   0     10    11.539    14.357    0.18E-04    0.12E-05    0.14E-07
   0     10    11.539    43.282    0.39E-04    0.17E-04    0.23E-06
   1     10    11.539     5.514    0.99E-05    0.13E-04    0.19E-07
   1     10    11.539     7.697    0.38E-04    0.79E-04    0.91E-07
 Optimization of the real space projectors (new method)

 maximal supplied QI-value         = 19.84
 optimisation between [QCUT,QGAM] = [ 11.51, 23.22] = [ 37.09,150.92] Ry 
 Optimized for a Real-space Cutoff    1.21 Angstroem

   l    n(q)    QCUT    max X(q) W(low)/X(q) W(high)/X(q)  e(spline) 
   0      8    11.508     6.651    0.19E-04    0.31E-05    0.49E-08
   0      8    11.508    90.285    0.95E-04    0.17E-03    0.51E-07
   1      8    11.508     4.328    0.14E-04    0.32E-04    0.22E-07
   1      8    11.508    54.583    0.16E-03    0.71E-04    0.89E-07
 Optimization of the real space projectors (new method)

 maximal supplied QI-value         = 16.25
 optimisation between [QCUT,QGAM] = [ 11.54, 23.24] = [ 37.28,151.24] Ry 
 Optimized for a Real-space Cutoff    1.28 Angstroem

   l    n(q)    QCUT    max X(q) W(low)/X(q) W(high)/X(q)  e(spline) 
   0      9    11.539     8.651    0.22E-04    0.16E-04    0.10E-07
   0      9    11.539    33.192    0.11E-03    0.16E-03    0.65E-07
   1      8    11.539     5.899    0.37E-04    0.28E-04    0.43E-07
   1      8    11.539    27.289    0.22E-03    0.28E-04    0.14E-06
   2      8    11.539     4.673    0.11E-03    0.18E-03    0.58E-07
 Optimization of the real space projectors (new method)

 maximal supplied QI-value         = 16.25
 optimisation between [QCUT,QGAM] = [ 11.54, 23.24] = [ 37.28,151.24] Ry 
 Optimized for a Real-space Cutoff    1.36 Angstroem

   l    n(q)    QCUT    max X(q) W(low)/X(q) W(high)/X(q)  e(spline) 
   0      9    11.539     7.090    0.13E-04    0.25E-05    0.51E-08
   0      9    11.539   101.654    0.53E-04    0.69E-04    0.12E-06
   1      9    11.539     5.276    0.20E-04    0.98E-05    0.24E-07
   1      9    11.539    81.891    0.24E-03    0.13E-04    0.15E-06
   2      9    11.539     5.599    0.30E-04    0.97E-04    0.54E-07

 ----------------------------------------------------------------------------- 
|                                                                             |
|  ADVICE TO THIS USER RUNNING 'VASP/VAMP'   (HEAR YOUR MASTER'S VOICE ...):  |
|                                                                             |
|      You enforced a specific xc-type in the INCAR file,                     |
|      a different type was found on the POTCAR file                          |
|          I HOPE YOU KNOW, WHAT YOU ARE  DOING                               |
|                                                                             |
 ----------------------------------------------------------------------------- 

 PAW_PBE Ni 06Sep2000                   :
 energy of atom  1       EATOM=-1077.9025
 kinetic energy error for atom=    0.0030 (will be added to EATOM!!)
  PAW_PBE P 17Jan2003                   :
 energy of atom  2       EATOM= -176.0430
 kinetic energy error for atom=    0.0011 (will be added to EATOM!!)
 PAW_PBE Ge 05Jan2001                   :
 energy of atom  3       EATOM= -104.9960
 kinetic energy error for atom=    0.0002 (will be added to EATOM!!)
 PAW_PBE Te 08Apr2002                   :
 energy of atom  4       EATOM= -223.2721
 kinetic energy error for atom=    0.0007 (will be added to EATOM!!)


 POSCAR: Ni2 P Ge Te6                            
  positions in direct lattice
  velocities in cartesian coordinates
  No initial velocities read in
 exchange correlation table for  LEXCH =       42
   RHO(1)=    0.500       N(1)  =     2000
   RHO(2)=  100.500       N(2)  =     4000



--------------------------------------------------------------------------------------------------------


 ion  position               nearest neighbor table
   1  0.333  0.333  0.500-   6 2.78   5 2.78   7 2.78   8 2.78  10 2.78   9 2.78
   2  0.667  0.667  0.500-   9 2.78   8 2.78  10 2.78   5 2.78   7 2.78   6 2.78
   3  0.000  0.000  0.448-   4 2.43   8 2.63  10 2.63   9 2.63
   4  0.000  0.000  0.552-   3 2.43   5 2.63   7 2.63   6 2.63
   5  0.626  0.000  0.574-   4 2.63   1 2.78   2 2.78
   6  0.000  0.373  0.574-   4 2.63   1 2.78   2 2.78
   7  0.373  0.626  0.574-   4 2.63   1 2.78   2 2.78
   8  0.374  1.000  0.426-   3 2.63   2 2.78   1 2.78
   9  1.000  0.627  0.426-   3 2.63   2 2.78   1 2.78
  10  0.627  0.374  0.426-   3 2.63   2 2.78   1 2.78

  LATTYP: Found a hexagonal cell.
 ALAT       =     6.9077769333
 C/A-ratio  =     3.3939410937
  
  Lattice vectors:
  
 A1 = (   3.4538890000,  -5.9823100000,   0.0000000000)
 A2 = (  -6.9077770000,   0.0000000000,   0.0000000000)
 A3 = (   0.0000000000,   0.0000000000, -23.4445880000)


Analysis of symmetry for initial positions (statically):
=====================================================================
 Subroutine PRICEL returns:
 Original cell was already a primitive cell.
 

 Routine SETGRP: Setting up the symmetry group for a 
 hexagonal supercell.


 Subroutine GETGRP returns: Found  3 space group operations
 (whereof  3 operations were pure point group operations)
 out of a pool of 24 trial point group operations.


The static configuration has the point symmetry C_3 .


Analysis of symmetry for dynamics (positions and initial velocities):
=====================================================================
 Subroutine PRICEL returns:
 Original cell was already a primitive cell.
 

 Routine SETGRP: Setting up the symmetry group for a 
 hexagonal supercell.


 Subroutine GETGRP returns: Found  3 space group operations
 (whereof  3 operations were pure point group operations)
 out of a pool of 24 trial point group operations.


The dynamic configuration has the point symmetry C_3 .


Analysis of constrained symmetry for selective dynamics:
=====================================================================
 Subroutine PRICEL returns:
 Original cell was already a primitive cell.
 

 Routine SETGRP: Setting up the symmetry group for a 
 hexagonal supercell.


 Subroutine GETGRP returns: Found  3 space group operations
 (whereof  3 operations were pure point group operations)
 out of a pool of 24 trial point group operations.


The constrained configuration has the point symmetry C_3 .


Analysis of structural, dynamic, and magnetic symmetry:
=====================================================================
 Subroutine PRICEL returns:
 Original cell was already a primitive cell.
 

 Routine SETGRP: Setting up the symmetry group for a 
 hexagonal supercell.


 Subroutine GETGRP returns: Found  3 space group operations
 (whereof  3 operations were pure point group operations)
 out of a pool of 24 trial point group operations.


The magnetic configuration has the point symmetry C_3 .


 Subroutine INISYM returns: Found  3 space group operations
 (whereof  3 operations are pure point group operations),
 and found     1 'primitive' translations



 KPOINTS: Kpoints from vasprun.xml                

Automatic generation of k-mesh.
Space group operators:
 irot       det(A)        alpha          n_x          n_y          n_z        tau_x        tau_y        tau_z
    1     1.000000     0.000000     1.000000     0.000000     0.000000     0.000000     0.000000     0.000000
    2     1.000000   120.000000     0.000000     0.000000     1.000000     0.000000     0.000000     0.000000
    3     1.000000   120.000000     0.000000     0.000000    -1.000000     0.000000     0.000000     0.000000
 
 Subroutine IBZKPT returns following result:
 ===========================================
 
 Found      5 irreducible k-points:
 
 Following reciprocal coordinates:
            Coordinates               Weight
  0.000000  0.000000  0.000000      1.000000
  0.200000  0.000000  0.000000      6.000000
  0.400000  0.000000  0.000000      6.000000
  0.400000  0.200000  0.000000      6.000000
 -0.400000  0.200000  0.000000      6.000000
 
 Following cartesian coordinates:
            Coordinates               Weight
  0.000000  0.000000  0.000000      1.000000
  0.028953 -0.016716  0.000000      6.000000
  0.057906 -0.033432  0.000000      6.000000
  0.057906  0.000000  0.000000      6.000000
 -0.057906  0.066864  0.000000      6.000000
 
 TETIRR: Found     15 inequivalent tetrahedra from      150


--------------------------------------------------------------------------------------------------------




 Dimension of arrays:
   k-points           NKPTS =      5   k-points in BZ     NKDIM =      5   number of bands    NBANDS=     48
   number of dos      NEDOS =    301   number of ions     NIONS =     10
   non local maximal  LDIM  =      6   non local SUM 2l+1 LMDIM =     18
   total plane-waves  NPLWV = 524880
   max r-space proj   IRMAX =   7543   max aug-charges    IRDMAX=  31706
   dimension x,y,z NGX =    54 NGY =   54 NGZ =  180
   dimension x,y,z NGXF=   108 NGYF=  108 NGZF=  360
   support grid    NGXF=   108 NGYF=  108 NGZF=  360
   ions per type =               2   1   1   6
   NGX,Y,Z   is equivalent  to a cutoff of  13.00, 13.00, 12.76 a.u.
   NGXF,Y,Z  is equivalent  to a cutoff of  25.99, 25.99, 25.53 a.u.

 SYSTEM =  unknown system                          
 POSCAR =  Ni2 P Ge Te6                            

 Startparameter for this run:
   NWRITE =      2    write-flag & timer
   PREC   = accura    normal or accurate (medium, high low for compatibility)
   ISTART =      0    job   : 0-new  1-cont  2-samecut
   ICHARG =      2    charge: 1-file 2-atom 10-const
   ISPIN  =      2    spin polarized calculation?
   LNONCOLLINEAR =      F non collinear calculations
   LSORBIT =      F    spin-orbit coupling
   INIWAV =      1    electr: 0-lowe 1-rand  2-diag
   LASPH  =      F    aspherical Exc in radial PAW
   METAGGA=      F    non-selfconsistent MetaGGA calc.

 Electronic Relaxation 1
   ENCUT  =  520.0 eV  38.22 Ry    6.18 a.u.  12.84 12.84 43.59*2*pi/ulx,y,z
   ENINI  =  520.0     initial cutoff
   ENAUG  =  544.6 eV  augmentation charge cutoff
   NELM   =    400;   NELMIN=  2; NELMDL=  0     # of ELM steps 
   EDIFF  = 0.1E-03   stopping-criterion for ELM
   LREAL  =      T    real-space projection
   NLSPLINE    = F    spline interpolate recip. space projectors
   LCOMPAT=      F    compatible to vasp.4.4
   GGA_COMPAT  = T    GGA compatible to vasp.4.4-vasp.4.6
   LMAXPAW     = -100 max onsite density
   LMAXMIX     =    2 max onsite mixed and CHGCAR
   VOSKOWN=      0    Vosko Wilk Nusair interpolation
   ROPT   =   -0.00025  -0.00025  -0.00025  -0.00025
 Ionic relaxation
   EDIFFG = 0.1E-02   stopping-criterion for IOM
   NSW    =     99    number of steps for IOM
   NBLOCK =      1;   KBLOCK =     99    inner block; outer block 
   IBRION =      2    ionic relax: 0-MD 1-quasi-New 2-CG
   NFREE  =      1    steps in history (QN), initial steepest desc. (CG)
   ISIF   =      3    stress and relaxation
   IWAVPR =     11    prediction:  0-non 1-charg 2-wave 3-comb
   ISYM   =      2    0-nonsym 1-usesym 2-fastsym
   LCORR  =      T    Harris-Foulkes like correction to forces

   POTIM  = 0.5000    time-step for ionic-motion
   TEIN   =    0.0    initial temperature
   TEBEG  =    0.0;   TEEND  =   0.0 temperature during run
   SMASS  =  -3.00    Nose mass-parameter (am)
   estimated Nose-frequenzy (Omega)   =  0.10E-29 period in steps =****** mass=  -0.109E-26a.u.
   SCALEE = 1.0000    scale energy and forces
   NPACO  =    256;   APACO  = 16.0  distance and # of slots for P.C.
   PSTRESS=    0.0 pullay stress

  Mass of Ions in am
   POMASS =  58.69 30.97 72.61127.60
  Ionic Valenz
   ZVAL   =  10.00  5.00  4.00  6.00
  Atomic Wigner-Seitz radii
   RWIGS  =  -1.00 -1.00 -1.00 -1.00
  virtual crystal weights 
   VCA    =   1.00  1.00  1.00  1.00
   NELECT =      65.0000    total number of electrons
   NUPDOWN=      -1.0000    fix difference up-down

 DOS related values:
   EMIN   =  10.00;   EMAX   =-10.00  energy-range for DOS
   EFERMI =   0.00
   ISMEAR =    -5;   SIGMA  =   0.05  broadening in eV -4-tet -1-fermi 0-gaus

 Electronic relaxation 2 (details)
   IALGO  =     38    algorithm
   LDIAG  =      T    sub-space diagonalisation (order eigenvalues)
   LSUBROT=      F    optimize rotation matrix (better conditioning)
   TURBO    =      0    0=normal 1=particle mesh
   IRESTART =      0    0=no restart 2=restart with 2 vectors
   NREBOOT  =      0    no. of reboots
   NMIN     =      0    reboot dimension
   EREF     =   0.00    reference energy to select bands
   IMIX   =      4    mixing-type and parameters
     AMIX     =   0.40;   BMIX     =  1.00
     AMIX_MAG =   1.60;   BMIX_MAG =  1.00
     AMIN     =   0.01
     WC   =   100.;   INIMIX=   1;  MIXPRE=   1;  MAXMIX= -45

 Intra band minimization:
   WEIMIN = 0.0010     energy-eigenvalue tresh-hold
   EBREAK =  0.52E-06  absolut break condition
   DEPER  =   0.30     relativ break condition  

   TIME   =   0.40     timestep for ELM

  volume/ion in A,a.u.               =      96.88       653.80
  Fermi-wavevector in a.u.,A,eV,Ry     =   0.665216  1.257076  6.020745  0.442512
  Thomas-Fermi vector in A             =   1.739143

 Write flags
   LWAVE        =      F    write WAVECAR
   LDOWNSAMPLE  =      F    k-point downsampling of WAVECAR
   LCHARG       =      T    write CHGCAR
   LVTOT        =      F    write LOCPOT, total local potential
   LVHAR        =      F    write LOCPOT, Hartree potential only
   LELF         =      F    write electronic localiz. function (ELF)
   LORBIT       =     11    0 simple, 1 ext, 2 COOP (PROOUT), +10 PAW based schemes


 Dipole corrections
   LMONO  =      F    monopole corrections only (constant potential shift)
   LDIPOL =      F    correct potential (dipole corrections)
   IDIPOL =      0    1-x, 2-y, 3-z, 4-all directions 
   EPSILON=  1.0000000 bulk dielectric constant

 Exchange correlation treatment:
   GGA     =    BO    GGA type
   LEXCH   =    42    internal setting for exchange type
   VOSKOWN=      0    Vosko Wilk Nusair interpolation
   LHFCALC =     F    Hartree Fock is set to
   LHFONE  =     F    Hartree Fock one center treatment
   AEXX    =    0.0000 exact exchange contribution

 vdW DFT:
   LUSE_VDW   =     T    switch on vdW DFT
   Zab_VDW    =-.8491    correlation parameter
   PARAM1     =0.1833
   PARAM2     =0.2200
   PARAM3     =0.0000
   -- rVV10 --
   BPARAM     = 6.3000
   CPARAM     = 0.0093

 Linear response parameters
   LEPSILON=     F    determine dielectric tensor
   LRPA    =     F    only Hartree local field effects (RPA)
   LNABLA  =     F    use nabla operator in PAW spheres
   LVEL    =     F    velocity operator in full k-point grid
   LINTERFAST=   F  fast interpolation
   KINTER  =     0    interpolate to denser k-point grid
   CSHIFT  =0.1000    complex shift for real part using Kramers Kronig
   OMEGAMAX=  -1.0    maximum frequency
   DEG_THRESHOLD= 0.2000000E-02 threshold for treating states as degnerate
   RTIME   =   -0.100 relaxation time in fs
  (WPLASMAI=    0.000 imaginary part of plasma frequency in eV, 0.658/RTIME)
   DFIELD  = 0.0000000 0.0000000 0.0000000 field for delta impulse in time

 Orbital magnetization related:
   ORBITALMAG=     F  switch on orbital magnetization
   LCHIMAG   =     F  perturbation theory with respect to B field
   DQ        =  0.001000  dq finite difference perturbation B field
   LLRAUG    =     F  two centre corrections for induced B field



--------------------------------------------------------------------------------------------------------


 conjugate gradient relaxation of ions
   using selective dynamics as specified on POSCAR
 charge density and potential will be updated during run
 spin polarized calculation
 Variant of blocked Davidson
 Davidson routine will perform the subspace rotation
 perform sub-space diagonalisation
    after iterative eigenvector-optimisation
 modified Broyden-mixing scheme, WC =      100.0
 initial mixing is a Kerker type mixing with AMIX =  0.4000 and BMIX =      1.0000
 Hartree-type preconditioning will be used
 using additional bands           15
 real space projection scheme for non local part
 use partial core corrections
 calculate Harris-corrections to forces   (improved forces if not selfconsistent)
 use gradient corrections 
 use of overlap-Matrix (Vanderbilt PP)
 Fermi weights with tetrahedron method with Bloechl corrections


--------------------------------------------------------------------------------------------------------


  energy-cutoff  :      520.00
  volume of cell :      968.84
      direct lattice vectors                 reciprocal lattice vectors
     6.907777000 -0.000000000  0.000000000     0.144764372 -0.083579742  0.000000000
     3.453888000  5.982310000  0.000000000     0.000000000  0.167159509 -0.000000000
     0.000000000  0.000000000 23.444588000    -0.000000000  0.000000000  0.042653767

  length of vectors
     6.907777000  6.907776433 23.444588000     0.167159495  0.167159509  0.042653767



 k-points in units of 2pi/SCALE and weight: Kpoints from vasprun.xml                
   0.00000000  0.00000000  0.00000000       0.040
   0.02895287 -0.01671595  0.00000000       0.240
   0.05790575 -0.03343190  0.00000000       0.240
   0.05790575  0.00000000  0.00000000       0.240
  -0.05790575  0.06686380  0.00000000       0.240

 k-points in reciprocal lattice and weights: Kpoints from vasprun.xml                
   0.00000000  0.00000000  0.00000000       0.040
   0.20000000  0.00000000  0.00000000       0.240
   0.40000000  0.00000000  0.00000000       0.240
   0.40000000  0.20000000  0.00000000       0.240
  -0.40000000  0.20000000  0.00000000       0.240

 position of ions in fractional coordinates (direct lattice) 
   0.33333300  0.33333300  0.49992500
   0.66666700  0.66666700  0.50007500
   0.00000000  0.00000000  0.44821600
   0.00000000  0.00000000  0.55178400
   0.62635700  0.00042000  0.57375200
   0.00042000  0.37322400  0.57375200
   0.37322400  0.62635700  0.57375200
   0.37364300  0.99958000  0.42624800
   0.99958000  0.62677600  0.42624800
   0.62677600  0.37364300  0.42624800

 position of ions in cartesian coordinates  (Angst):
   3.45388488  1.99410134 11.72053566
   6.90778012  3.98820866 11.72405234
   0.00000000  0.00000000 10.50823946
   0.00000000  0.00000000 12.93634854
   4.32818511  0.00251257 13.45137925
   1.29197516  2.23274167 13.45137925
   4.74151509  3.74706174 13.45137925
   6.03347989  5.97979743  9.99320875
   9.06968984  3.74956833  9.99320875
   5.62014991  2.23524826  9.99320875



--------------------------------------------------------------------------------------------------------


 k-point  1 :   0.0000 0.0000 0.0000  plane waves:   26073
 k-point  2 :   0.2000 0.0000 0.0000  plane waves:   26070
 k-point  3 :   0.4000 0.0000 0.0000  plane waves:   26086
 k-point  4 :   0.4000 0.2000 0.0000  plane waves:   26085
 k-point  5 :  -0.4000 0.2000 0.0000  plane waves:   26115

 maximum and minimum number of plane-waves per node :     26115    26070

 maximum number of plane-waves:     26115
 maximum index in each direction: 
   IXMAX=   13   IYMAX=   12   IZMAX=   43
   IXMIN=  -13   IYMIN=  -13   IZMIN=  -43


 serial   3D FFT for wavefunctions
 parallel 3D FFT for charge:
    minimum data exchange during FFTs selected (reduces bandwidth)


 total amount of memory used by VASP MPI-rank0   130713. kBytes
=======================================================================

   base      :      30000. kBytes
   nonlr-proj:       8213. kBytes
   fftplans  :      11247. kBytes
   grid      :      68332. kBytes
   one-center:        311. kBytes
   wavefun   :      12610. kBytes

     INWAV:  cpu time    0.0000: real time    0.0004
 Broyden mixing: mesh for mixing (old mesh)
   NGX = 25   NGY = 25   NGZ = 87
  (NGX  =108   NGY  =108   NGZ  =360)
  gives a total of  54375 points

 initial charge density was supplied:
 charge density of overlapping atoms calculated
 number of electron      65.0000000 magnetization       7.3200000
 keeping initial charge density in first step


--------------------------------------------------------------------------------------------------------


 Maximum index for non-local projection operator         7247
 Maximum index for augmentation-charges         2278 (set IRDMAX)


--------------------------------------------------------------------------------------------------------


 First call to EWALD:  gamma=   0.179
 Maximum number of real-space cells 4x 4x 1
 Maximum number of reciprocal cells 2x 2x 6

    FEWALD:  cpu time    0.0040: real time    0.0015


--------------------------------------- Iteration      1(   1)  ---------------------------------------


vdW kernel read from vdw_kernel.bindat
  0.0000  0.2424  0.5071  0.7962  1.1119  1.4567  1.8333  2.2446  2.6937  3.1842
  3.7199  4.3049  4.9438  5.6415  6.4036  7.2358  8.1446  9.1372 10.2212 11.4050
 12.6979 14.1099 15.6519 17.3360 19.1751 21.1837 23.3773 25.7729 28.3892 31.2465
 34.3669 37.7748 41.4965 45.5611 50.0000

    POTLOK:  cpu time   53.0120: real time   53.2260
    SETDIJ:  cpu time    0.0560: real time    0.0539
     EDDAV:  cpu time   22.9760: real time   23.0926
 BZINTS: Fermi energy:  5.497433; 65.000000 electrons
         Band energy:  10.661421;  BLOECHL correction: -0.041639
       DOS:  cpu time    0.0040: real time    0.0047
    --------------------------------------------
      LOOP:  cpu time   76.0480: real time   76.3772

 eigenvalue-minimisations  :   960
 total energy-change (2. order) : 0.4010034E+03  (-0.1978408E+04)
 number of electron      65.0000000 magnetization       7.3200000
 augmentation part       65.0000000 magnetization       7.3200000

 Free energy of the ion-electron system (eV)
  ---------------------------------------------------
  alpha Z        PSCENC =        19.82141849
  Ewald energy   TEWEN  =      8338.88239735
  -Hartree energ DENC   =    -11773.86302338
  -exchange      EXHF   =         0.00000000
  -V(xc)+E(xc)   XCENC  =      -118.84770884
  PAW double counting   =      2458.64793336    -2327.33533323
  entropy T*S    EENTRO =         0.00000000
  eigenvalues    EBANDS =        10.66142052
  atomic energy  EATOM  =      3793.03632354
  Solvation  Ediel_sol  =         0.00000000
  ---------------------------------------------------
  free energy    TOTEN  =       401.00342780 eV

  energy without entropy =      401.00342780  energy(sigma->0) =      401.00342780


--------------------------------------------------------------------------------------------------------




--------------------------------------- Iteration      1(   2)  ---------------------------------------


     EDDAV:  cpu time   32.7920: real time   32.9249
 BZINTS: Fermi energy: -1.102957; 65.000000 electrons
         Band energy:-378.599633;  BLOECHL correction: -0.030766
       DOS:  cpu time    0.0080: real time    0.0048
    --------------------------------------------
      LOOP:  cpu time   32.8000: real time   32.9297

 eigenvalue-minimisations  :  1424
 total energy-change (2. order) :-0.3892611E+03  (-0.3745071E+03)
 number of electron      65.0000000 magnetization       7.3200000
 augmentation part       65.0000000 magnetization       7.3200000

 Free energy of the ion-electron system (eV)
  ---------------------------------------------------
  alpha Z        PSCENC =        19.82141849
  Ewald energy   TEWEN  =      8338.88239735
  -Hartree energ DENC   =    -11773.86302338
  -exchange      EXHF   =         0.00000000
  -V(xc)+E(xc)   XCENC  =      -118.84770884
  PAW double counting   =      2458.64793336    -2327.33533323
  entropy T*S    EENTRO =         0.00000000
  eigenvalues    EBANDS =      -378.59963325
  atomic energy  EATOM  =      3793.03632354
  Solvation  Ediel_sol  =         0.00000000
  ---------------------------------------------------
  free energy    TOTEN  =        11.74237403 eV

  energy without entropy =       11.74237403  energy(sigma->0) =       11.74237403


--------------------------------------------------------------------------------------------------------




--------------------------------------- Iteration      1(   3)  ---------------------------------------


     EDDAV:  cpu time   29.6680: real time   29.7633
 BZINTS: Fermi energy: -1.827981; 65.000000 electrons
         Band energy:-422.187771;  BLOECHL correction:  0.000000
       DOS:  cpu time    0.0000: real time    0.0017
    --------------------------------------------
      LOOP:  cpu time   29.6680: real time   29.7650

 eigenvalue-minimisations  :  1280
 total energy-change (2. order) :-0.4358814E+02  (-0.4305338E+02)
 number of electron      65.0000000 magnetization       7.3200000
 augmentation part       65.0000000 magnetization       7.3200000

 Free energy of the ion-electron system (eV)
  ---------------------------------------------------
  alpha Z        PSCENC =        19.82141849
  Ewald energy   TEWEN  =      8338.88239735
  -Hartree energ DENC   =    -11773.86302338
  -exchange      EXHF   =         0.00000000
  -V(xc)+E(xc)   XCENC  =      -118.84770884
  PAW double counting   =      2458.64793336    -2327.33533323
  entropy T*S    EENTRO =         0.00000000
  eigenvalues    EBANDS =      -422.18777135
  atomic energy  EATOM  =      3793.03632354
  Solvation  Ediel_sol  =         0.00000000
  ---------------------------------------------------
  free energy    TOTEN  =       -31.84576407 eV

  energy without entropy =      -31.84576407  energy(sigma->0) =      -31.84576407


--------------------------------------------------------------------------------------------------------




--------------------------------------- Iteration      1(   4)  ---------------------------------------


     EDDAV:  cpu time   29.1120: real time   29.2042
 BZINTS: Fermi energy: -1.855959; 65.000000 electrons
         Band energy:-423.844985;  BLOECHL correction:  0.000000
       DOS:  cpu time    0.0040: real time    0.0015
    --------------------------------------------
      LOOP:  cpu time   29.1160: real time   29.2056

 eigenvalue-minimisations  :  1264
 total energy-change (2. order) :-0.1657213E+01  (-0.1655056E+01)
 number of electron      65.0000000 magnetization       7.3200000
 augmentation part       65.0000000 magnetization       7.3200000

 Free energy of the ion-electron system (eV)
  ---------------------------------------------------
  alpha Z        PSCENC =        19.82141849
  Ewald energy   TEWEN  =      8338.88239735
  -Hartree energ DENC   =    -11773.86302338
  -exchange      EXHF   =         0.00000000
  -V(xc)+E(xc)   XCENC  =      -118.84770884
  PAW double counting   =      2458.64793336    -2327.33533323
  entropy T*S    EENTRO =         0.00000000
  eigenvalues    EBANDS =      -423.84498465
  atomic energy  EATOM  =      3793.03632354
  Solvation  Ediel_sol  =         0.00000000
  ---------------------------------------------------
  free energy    TOTEN  =       -33.50297737 eV

  energy without entropy =      -33.50297737  energy(sigma->0) =      -33.50297737


--------------------------------------------------------------------------------------------------------




--------------------------------------- Iteration      1(   5)  ---------------------------------------


     EDDAV:  cpu time   32.7480: real time   32.7999
 BZINTS: Fermi energy: -1.839374; 65.000000 electrons
         Band energy:-423.873334;  BLOECHL correction:  0.000000
       DOS:  cpu time    0.0000: real time    0.0024
    CHARGE:  cpu time    2.1400: real time    2.1443
    MIXING:  cpu time    0.0400: real time    0.0404
    --------------------------------------------
      LOOP:  cpu time   34.9280: real time   34.9870

 eigenvalue-minimisations  :  1424
 total energy-change (2. order) :-0.2834921E-01  (-0.2834382E-01)
 number of electron      64.9999996 magnetization       6.8568150
 augmentation part        2.3776777 magnetization       5.2922216

 Broyden mixing:
  rms(total) = 0.14498E+01    rms(broyden)= 0.14489E+01
  rms(prec ) = 0.15471E+01
  weight for this iteration     100.00

 Free energy of the ion-electron system (eV)
  ---------------------------------------------------
  alpha Z        PSCENC =        19.82141849
  Ewald energy   TEWEN  =      8338.88239735
  -Hartree energ DENC   =    -11773.86302338
  -exchange      EXHF   =         0.00000000
  -V(xc)+E(xc)   XCENC  =      -118.84770884
  PAW double counting   =      2458.64793336    -2327.33533323
  entropy T*S    EENTRO =         0.00000000
  eigenvalues    EBANDS =      -423.87333386
  atomic energy  EATOM  =      3793.03632354
  Solvation  Ediel_sol  =         0.00000000
  ---------------------------------------------------
  free energy    TOTEN  =       -33.53132658 eV

  energy without entropy =      -33.53132658  energy(sigma->0) =      -33.53132658


--------------------------------------------------------------------------------------------------------




--------------------------------------- Iteration      1(   6)  ---------------------------------------


    POTLOK:  cpu time   51.9680: real time   52.0438
    SETDIJ:  cpu time    0.0560: real time    0.0537
     EDDAV:  cpu time   25.9360: real time   25.9784
 BZINTS: Fermi energy: -2.878044; 65.000000 electrons
         Band energy:-526.025451;  BLOECHL correction: -0.055835
       DOS:  cpu time    0.0040: real time    0.0072
    CHARGE:  cpu time    2.1480: real time    2.1532
    MIXING:  cpu time    0.0440: real time    0.0435
    --------------------------------------------
      LOOP:  cpu time   80.1560: real time   80.2799

 eigenvalue-minimisations  :  1104
 total energy-change (2. order) :-0.9956464E+01  (-0.6135392E+01)
 number of electron      64.9999997 magnetization       6.6705885
 augmentation part        7.0008543 magnetization       4.7047631

 Broyden mixing:
  rms(total) = 0.24669E+01    rms(broyden)= 0.24666E+01
  rms(prec ) = 0.26465E+01
  weight for this iteration     100.00

 eigenvalues of (default mixing * dielectric matrix)
  average eigenvalue GAMMA=   0.3053
  0.3053

 Free energy of the ion-electron system (eV)
  ---------------------------------------------------
  alpha Z        PSCENC =        19.82141849
  Ewald energy   TEWEN  =      8338.88239735
  -Hartree energ DENC   =    -11693.10864902
  -exchange      EXHF   =         0.00000000
  -V(xc)+E(xc)   XCENC  =      -121.52358478
  PAW double counting   =      2358.64763128    -2213.21787600
  entropy T*S    EENTRO =         0.00000000
  eigenvalues    EBANDS =      -526.02545125
  atomic energy  EATOM  =      3793.03632354
  Solvation  Ediel_sol  =         0.00000000
  ---------------------------------------------------
  free energy    TOTEN  =       -43.48779039 eV

  energy without entropy =      -43.48779039  energy(sigma->0) =      -43.48779039


--------------------------------------------------------------------------------------------------------




--------------------------------------- Iteration      1(   7)  ---------------------------------------


    POTLOK:  cpu time   51.4680: real time   51.9644
    SETDIJ:  cpu time    0.0400: real time    0.0442
     EDDAV:  cpu time   24.5120: real time   25.2737
 BZINTS: Fermi energy: -2.499436; 65.000000 electrons
         Band energy:-448.729331;  BLOECHL correction: -0.021407
       DOS:  cpu time    0.0040: real time    0.0064
    CHARGE:  cpu time    2.1640: real time    2.1665
    MIXING:  cpu time    0.0440: real time    0.0448
    --------------------------------------------
      LOOP:  cpu time   78.2320: real time   79.4999

 eigenvalue-minimisations  :  1072
 total energy-change (2. order) : 0.1130417E+02  (-0.2098231E+01)
 number of electron      64.9999997 magnetization       6.3252433
 augmentation part        5.0872693 magnetization       4.2251770

 Broyden mixing:
  rms(total) = 0.69110E+00    rms(broyden)= 0.69098E+00
  rms(prec ) = 0.75994E+00
  weight for this iteration     100.00

 eigenvalues of (default mixing * dielectric matrix)
  average eigenvalue GAMMA=   0.5754
  0.5754  0.5754

 Free energy of the ion-electron system (eV)
  ---------------------------------------------------
  alpha Z        PSCENC =        19.82141849
  Ewald energy   TEWEN  =      8338.88239735
  -Hartree energ DENC   =    -11747.52874730
  -exchange      EXHF   =         0.00000000
  -V(xc)+E(xc)   XCENC  =      -119.90793845
  PAW double counting   =      2456.72560352    -2324.48334936
  entropy T*S    EENTRO =         0.00000000
  eigenvalues    EBANDS =      -448.72933086
  atomic energy  EATOM  =      3793.03632354
  Solvation  Ediel_sol  =         0.00000000
  ---------------------------------------------------
  free energy    TOTEN  =       -32.18362308 eV

  energy without entropy =      -32.18362308  energy(sigma->0) =      -32.18362308


--------------------------------------------------------------------------------------------------------




--------------------------------------- Iteration      1(   8)  ---------------------------------------


    POTLOK:  cpu time   50.8800: real time   51.6318
    SETDIJ:  cpu time    0.0480: real time    0.0493
     EDDAV:  cpu time   30.6000: real time   30.7792
 BZINTS: Fermi energy: -1.982297; 65.000000 electrons
         Band energy:-423.143156;  BLOECHL correction: -0.008129
       DOS:  cpu time    0.0080: real time    0.0066
    CHARGE:  cpu time    2.1560: real time    2.1592
    MIXING:  cpu time    0.0400: real time    0.0416
    --------------------------------------------
      LOOP:  cpu time   83.7320: real time   84.6676

 eigenvalue-minimisations  :  1360
 total energy-change (2. order) :-0.6706278E-01  (-0.6762507E+00)
 number of electron      64.9999996 magnetization       5.8071862
 augmentation part        3.2665327 magnetization       4.0982524

 Broyden mixing:
  rms(total) = 0.75160E+00    rms(broyden)= 0.75118E+00
  rms(prec ) = 0.80194E+00
  weight for this iteration     100.00

 eigenvalues of (default mixing * dielectric matrix)
  average eigenvalue GAMMA=   0.7066
  1.1541  0.4829  0.4829

 Free energy of the ion-electron system (eV)
  ---------------------------------------------------
  alpha Z        PSCENC =        19.82141849
  Ewald energy   TEWEN  =      8338.88239735
  -Hartree energ DENC   =    -11770.68938747
  -exchange      EXHF   =         0.00000000
  -V(xc)+E(xc)   XCENC  =      -119.23834646
  PAW double counting   =      2511.92663038    -2382.84656566
  entropy T*S    EENTRO =         0.00000000
  eigenvalues    EBANDS =      -423.14315602
  atomic energy  EATOM  =      3793.03632354
  Solvation  Ediel_sol  =         0.00000000
  ---------------------------------------------------
  free energy    TOTEN  =       -32.25068586 eV

  energy without entropy =      -32.25068586  energy(sigma->0) =      -32.25068586


--------------------------------------------------------------------------------------------------------




--------------------------------------- Iteration      1(   9)  ---------------------------------------


    POTLOK:  cpu time   50.8320: real time   50.9818
    SETDIJ:  cpu time    0.0520: real time    0.0494
     EDDAV:  cpu time   28.3680: real time   28.5637
 BZINTS: Fermi energy: -2.398561; 65.000000 electrons
         Band energy:-439.744519;  BLOECHL correction: -0.025772
       DOS:  cpu time    0.0040: real time    0.0047
    CHARGE:  cpu time    2.1640: real time    2.1684
    MIXING:  cpu time    0.0400: real time    0.0420
    --------------------------------------------
      LOOP:  cpu time   81.4600: real time   81.8100

 eigenvalue-minimisations  :  1248
 total energy-change (2. order) : 0.1041217E+00  (-0.2925602E+00)
 number of electron      64.9999997 magnetization       5.1895019
 augmentation part        4.6168684 magnetization       3.2161562

 Broyden mixing:
  rms(total) = 0.39810E+00    rms(broyden)= 0.39791E+00
  rms(prec ) = 0.42988E+00
  weight for this iteration     100.00

 eigenvalues of (default mixing * dielectric matrix)
  average eigenvalue GAMMA=   0.9841
  2.2015  0.8342  0.4502  0.4502

 Free energy of the ion-electron system (eV)
  ---------------------------------------------------
  alpha Z        PSCENC =        19.82141849
  Ewald energy   TEWEN  =      8338.88239735
  -Hartree energ DENC   =    -11754.61914746
  -exchange      EXHF   =         0.00000000
  -V(xc)+E(xc)   XCENC  =      -119.67919813
  PAW double counting   =      2500.35044739    -2370.19428652
  entropy T*S    EENTRO =         0.00000000
  eigenvalues    EBANDS =      -439.74451883
  atomic energy  EATOM  =      3793.03632354
  Solvation  Ediel_sol  =         0.00000000
  ---------------------------------------------------
  free energy    TOTEN  =       -32.14656418 eV

  energy without entropy =      -32.14656418  energy(sigma->0) =      -32.14656418


--------------------------------------------------------------------------------------------------------




--------------------------------------- Iteration      1(  10)  ---------------------------------------


    POTLOK:  cpu time   50.7360: real time   51.1033
    SETDIJ:  cpu time    0.0480: real time    0.0497
     EDDAV:  cpu time   29.8000: real time   30.2579
 BZINTS: Fermi energy: -2.253238; 65.000000 electrons
         Band energy:-432.489028;  BLOECHL correction: -0.021139
       DOS:  cpu time    0.0040: real time    0.0069
    CHARGE:  cpu time    2.1040: real time    2.1738
    MIXING:  cpu time    0.0440: real time    0.0469
    --------------------------------------------
      LOOP:  cpu time   82.7360: real time   83.6384

 eigenvalue-minimisations  :  1328
 total energy-change (2. order) :-0.2684283E-04  (-0.4646434E-01)
 number of electron      64.9999996 magnetization       5.0177142
 augmentation part        4.2830817 magnetization       3.2130874

 Broyden mixing:
  rms(total) = 0.25491E+00    rms(broyden)= 0.25486E+00
  rms(prec ) = 0.27173E+00
  weight for this iteration     100.00

 eigenvalues of (default mixing * dielectric matrix)
  average eigenvalue GAMMA=   0.8897
  2.3966  0.8839  0.4431  0.4431  0.2821

 Free energy of the ion-electron system (eV)
  ---------------------------------------------------
  alpha Z        PSCENC =        19.82141849
  Ewald energy   TEWEN  =      8338.88239735
  -Hartree energ DENC   =    -11761.27963029
  -exchange      EXHF   =         0.00000000
  -V(xc)+E(xc)   XCENC  =      -119.46976369
  PAW double counting   =      2521.77950319    -2392.42781189
  entropy T*S    EENTRO =         0.00000000
  eigenvalues    EBANDS =      -432.48902772
  atomic energy  EATOM  =      3793.03632354
  Solvation  Ediel_sol  =         0.00000000
  ---------------------------------------------------
  free energy    TOTEN  =       -32.14659102 eV

  energy without entropy =      -32.14659102  energy(sigma->0) =      -32.14659102


--------------------------------------------------------------------------------------------------------




--------------------------------------- Iteration      1(  11)  ---------------------------------------


    POTLOK:  cpu time   50.6560: real time   51.0657
    SETDIJ:  cpu time    0.0480: real time    0.0484
     EDDAV:  cpu time   26.0240: real time   26.2449
 BZINTS: Fermi energy: -2.215253; 65.000000 electrons
         Band energy:-430.565766;  BLOECHL correction: -0.019983
       DOS:  cpu time    0.0040: real time    0.0048
    CHARGE:  cpu time    2.1200: real time    2.1625
    MIXING:  cpu time    0.0400: real time    0.0432
    --------------------------------------------
      LOOP:  cpu time   78.8920: real time   79.5694

 eigenvalue-minimisations  :  1136
 total energy-change (2. order) : 0.1224573E-02  (-0.2853427E-01)
 number of electron      64.9999996 magnetization       4.4055903
 augmentation part        4.1875137 magnetization       2.6431414

 Broyden mixing:
  rms(total) = 0.15845E+00    rms(broyden)= 0.15838E+00
  rms(prec ) = 0.16456E+00
  weight for this iteration     100.00

 eigenvalues of (default mixing * dielectric matrix)
  average eigenvalue GAMMA=   0.9795
  2.8312  1.2696  0.6857  0.4562  0.4562  0.1783

 Free energy of the ion-electron system (eV)
  ---------------------------------------------------
  alpha Z        PSCENC =        19.82141849
  Ewald energy   TEWEN  =      8338.88239735
  -Hartree energ DENC   =    -11763.07986301
  -exchange      EXHF   =         0.00000000
  -V(xc)+E(xc)   XCENC  =      -119.41607936
  PAW double counting   =      2525.59422077    -2396.41801857
  entropy T*S    EENTRO =         0.00000000
  eigenvalues    EBANDS =      -430.56576566
  atomic energy  EATOM  =      3793.03632354
  Solvation  Ediel_sol  =         0.00000000
  ---------------------------------------------------
  free energy    TOTEN  =       -32.14536645 eV

  energy without entropy =      -32.14536645  energy(sigma->0) =      -32.14536645


--------------------------------------------------------------------------------------------------------




--------------------------------------- Iteration      1(  12)  ---------------------------------------


    POTLOK:  cpu time   50.5760: real time   50.8893
    SETDIJ:  cpu time    0.0880: real time    0.0860
     EDDAV:  cpu time   25.0440: real time   25.1613
 BZINTS: Fermi energy: -2.137327; 65.000000 electrons
         Band energy:-426.597197;  BLOECHL correction: -0.018163
       DOS:  cpu time    0.0080: real time    0.0073
    CHARGE:  cpu time    2.1840: real time    2.1903
    MIXING:  cpu time    0.0440: real time    0.0441
    --------------------------------------------
      LOOP:  cpu time   77.9440: real time   78.3784

 eigenvalue-minimisations  :  1088
 total energy-change (2. order) :-0.7894332E-01  (-0.1536626E-01)
 number of electron      64.9999996 magnetization       3.5038058
 augmentation part        3.9821986 magnetization       1.8482458

 Broyden mixing:
  rms(total) = 0.14316E+00    rms(broyden)= 0.14311E+00
  rms(prec ) = 0.15248E+00
  weight for this iteration     100.00

 eigenvalues of (default mixing * dielectric matrix)
  average eigenvalue GAMMA=   1.2408
  3.9790  2.0149  0.9617  0.6441  0.4554  0.4554  0.1751

 Free energy of the ion-electron system (eV)
  ---------------------------------------------------
  alpha Z        PSCENC =        19.82141849
  Ewald energy   TEWEN  =      8338.88239735
  -Hartree energ DENC   =    -11767.14658425
  -exchange      EXHF   =         0.00000000
  -V(xc)+E(xc)   XCENC  =      -119.29264792
  PAW double counting   =      2529.52140708    -2400.44942679
  entropy T*S    EENTRO =         0.00000000
  eigenvalues    EBANDS =      -426.59719727
  atomic energy  EATOM  =      3793.03632354
  Solvation  Ediel_sol  =         0.00000000
  ---------------------------------------------------
  free energy    TOTEN  =       -32.22430977 eV

  energy without entropy =      -32.22430977  energy(sigma->0) =      -32.22430977


--------------------------------------------------------------------------------------------------------




--------------------------------------- Iteration      1(  13)  ---------------------------------------


    POTLOK:  cpu time   50.8160: real time   51.0053
    SETDIJ:  cpu time    0.0520: real time    0.0538
     EDDAV:  cpu time   26.4520: real time   26.6292
 BZINTS: Fermi energy: -2.146963; 65.000000 electrons
         Band energy:-426.169568;  BLOECHL correction: -0.020071
       DOS:  cpu time    0.0040: real time    0.0063
    CHARGE:  cpu time    2.1720: real time    2.1810
    MIXING:  cpu time    0.0520: real time    0.0525
    --------------------------------------------
      LOOP:  cpu time   79.5480: real time   79.9282

 eigenvalue-minimisations  :  1152
 total energy-change (2. order) :-0.8770398E-01  (-0.5935425E-02)
 number of electron      64.9999996 magnetization       3.0369855
 augmentation part        4.0386067 magnetization       1.4131707

 Broyden mixing:
  rms(total) = 0.86698E-01    rms(broyden)= 0.86696E-01
  rms(prec ) = 0.92771E-01
  weight for this iteration     100.00

 eigenvalues of (default mixing * dielectric matrix)
  average eigenvalue GAMMA=   1.4573
  5.5697  2.3077  1.2230  0.4563  0.4563  0.8191  0.6512  0.1750

 Free energy of the ion-electron system (eV)
  ---------------------------------------------------
  alpha Z        PSCENC =        19.82141849
  Ewald energy   TEWEN  =      8338.88239735
  -Hartree energ DENC   =    -11768.00358997
  -exchange      EXHF   =         0.00000000
  -V(xc)+E(xc)   XCENC  =      -119.33387718
  PAW double counting   =      2522.80718277    -2393.35230042
  entropy T*S    EENTRO =         0.00000000
  eigenvalues    EBANDS =      -426.16956833
  atomic energy  EATOM  =      3793.03632354
  Solvation  Ediel_sol  =         0.00000000
  ---------------------------------------------------
  free energy    TOTEN  =       -32.31201375 eV

  energy without entropy =      -32.31201375  energy(sigma->0) =      -32.31201375


--------------------------------------------------------------------------------------------------------




--------------------------------------- Iteration      1(  14)  ---------------------------------------


    POTLOK:  cpu time   50.7400: real time   51.1407
    SETDIJ:  cpu time    0.0520: real time    0.0498
     EDDAV:  cpu time   25.4400: real time   25.5838
 BZINTS: Fermi energy: -2.180825; 65.000000 electrons
         Band energy:-427.122977;  BLOECHL correction: -0.013441
       DOS:  cpu time    0.0040: real time    0.0070
    CHARGE:  cpu time    2.1640: real time    2.1676
    MIXING:  cpu time    0.0440: real time    0.0460
    --------------------------------------------
      LOOP:  cpu time   78.4440: real time   78.9950

 eigenvalue-minimisations  :  1104
 total energy-change (2. order) :-0.5512942E-03  (-0.4709924E-02)
 number of electron      64.9999996 magnetization       2.8060615
 augmentation part        4.1441633 magnetization       1.1591670

 Broyden mixing:
  rms(total) = 0.26520E-01    rms(broyden)= 0.26471E-01
  rms(prec ) = 0.27237E-01
  weight for this iteration     100.00

 eigenvalues of (default mixing * dielectric matrix)
  average eigenvalue GAMMA=   1.7787
  8.2806  2.6106  1.7064  0.9446  0.4562  0.4562  0.7335  0.6458  0.1750

 Free energy of the ion-electron system (eV)
  ---------------------------------------------------
  alpha Z        PSCENC =        19.82141849
  Ewald energy   TEWEN  =      8338.88239735
  -Hartree energ DENC   =    -11767.12521332
  -exchange      EXHF   =         0.00000000
  -V(xc)+E(xc)   XCENC  =      -119.43296615
  PAW double counting   =      2517.66840312    -2388.03995069
  entropy T*S    EENTRO =         0.00000000
  eigenvalues    EBANDS =      -427.12297738
  atomic energy  EATOM  =      3793.03632354
  Solvation  Ediel_sol  =         0.00000000
  ---------------------------------------------------
  free energy    TOTEN  =       -32.31256504 eV

  energy without entropy =      -32.31256504  energy(sigma->0) =      -32.31256504


--------------------------------------------------------------------------------------------------------




--------------------------------------- Iteration      1(  15)  ---------------------------------------


    POTLOK:  cpu time   51.0480: real time   51.2105
    SETDIJ:  cpu time    0.0520: real time    0.0494
     EDDAV:  cpu time   24.2160: real time   24.2931
 BZINTS: Fermi energy: -2.164147; 65.000000 electrons
         Band energy:-426.456905;  BLOECHL correction: -0.014678
       DOS:  cpu time    0.0080: real time    0.0073
    CHARGE:  cpu time    2.1560: real time    2.1561
    MIXING:  cpu time    0.0800: real time    0.0825
    --------------------------------------------
      LOOP:  cpu time   77.5600: real time   77.7988

 eigenvalue-minimisations  :  1040
 total energy-change (2. order) :-0.6476844E-03  (-0.6548916E-03)
 number of electron      64.9999996 magnetization       2.7049386
 augmentation part        4.1195483 magnetization       1.1007720

 Broyden mixing:
  rms(total) = 0.19654E-01    rms(broyden)= 0.19649E-01
  rms(prec ) = 0.21058E-01
  weight for this iteration     100.00

 eigenvalues of (default mixing * dielectric matrix)
  average eigenvalue GAMMA=   1.8082
  9.4603  2.6477  1.7144  0.4562  0.4562  0.9058  0.9058  0.7334  0.6270  0.1750

 Free energy of the ion-electron system (eV)
  ---------------------------------------------------
  alpha Z        PSCENC =        19.82141849
  Ewald energy   TEWEN  =      8338.88239735
  -Hartree energ DENC   =    -11767.64016051
  -exchange      EXHF   =         0.00000000
  -V(xc)+E(xc)   XCENC  =      -119.46653495
  PAW double counting   =      2518.34853922    -2388.83829071
  entropy T*S    EENTRO =         0.00000000
  eigenvalues    EBANDS =      -426.45690517
  atomic energy  EATOM  =      3793.03632354
  Solvation  Ediel_sol  =         0.00000000
  ---------------------------------------------------
  free energy    TOTEN  =       -32.31321273 eV

  energy without entropy =      -32.31321273  energy(sigma->0) =      -32.31321273


--------------------------------------------------------------------------------------------------------




--------------------------------------- Iteration      1(  16)  ---------------------------------------


    POTLOK:  cpu time   50.8240: real time   50.9860
    SETDIJ:  cpu time    0.0480: real time    0.0489
     EDDAV:  cpu time   22.8360: real time   23.0303
 BZINTS: Fermi energy: -2.167526; 65.000000 electrons
         Band energy:-426.759391;  BLOECHL correction: -0.015991
       DOS:  cpu time    0.0080: real time    0.0071
    CHARGE:  cpu time    2.1480: real time    2.1531
    MIXING:  cpu time    0.0480: real time    0.0497
    --------------------------------------------
      LOOP:  cpu time   75.9120: real time   76.2751

 eigenvalue-minimisations  :   976
 total energy-change (2. order) :-0.2197078E-02  (-0.2198022E-03)
 number of electron      64.9999996 magnetization       2.6561373
 augmentation part        4.1506271 magnetization       1.0804041

 Broyden mixing:
  rms(total) = 0.15282E-01    rms(broyden)= 0.15268E-01
  rms(prec ) = 0.16051E-01
  weight for this iteration     100.00

 eigenvalues of (default mixing * dielectric matrix)
  average eigenvalue GAMMA=   1.7938
  9.9099  2.6416  1.9954  1.0194  1.0194  0.4562  0.4562  0.7526  0.6732  0.6323
  0.1750

 Free energy of the ion-electron system (eV)
  ---------------------------------------------------
  alpha Z        PSCENC =        19.82141849
  Ewald energy   TEWEN  =      8338.88239735
  -Hartree energ DENC   =    -11767.33241555
  -exchange      EXHF   =         0.00000000
  -V(xc)+E(xc)   XCENC  =      -119.48546453
  PAW double counting   =      2518.06243318    -2388.54071157
  entropy T*S    EENTRO =         0.00000000
  eigenvalues    EBANDS =      -426.75939071
  atomic energy  EATOM  =      3793.03632354
  Solvation  Ediel_sol  =         0.00000000
  ---------------------------------------------------
  free energy    TOTEN  =       -32.31540981 eV

  energy without entropy =      -32.31540981  energy(sigma->0) =      -32.31540981


--------------------------------------------------------------------------------------------------------




--------------------------------------- Iteration      1(  17)  ---------------------------------------


    POTLOK:  cpu time   50.5880: real time   50.7625
    SETDIJ:  cpu time    0.0520: real time    0.0493
     EDDAV:  cpu time   23.6960: real time   23.9879
 BZINTS: Fermi energy: -2.158848; 65.000000 electrons
         Band energy:-426.367735;  BLOECHL correction: -0.016293
       DOS:  cpu time    0.0080: real time    0.0050
    --------------------------------------------
      LOOP:  cpu time   74.3440: real time   74.8047

 eigenvalue-minimisations  :  1024
 total energy-change (2. order) : 0.8037654E-04  (-0.9101272E-04)
 number of electron      64.9999996 magnetization       2.6561373
 augmentation part        4.1506271 magnetization       1.0804041

 Free energy of the ion-electron system (eV)
  ---------------------------------------------------
  alpha Z        PSCENC =        19.82141849
  Ewald energy   TEWEN  =      8338.88239735
  -Hartree energ DENC   =    -11767.66944364
  -exchange      EXHF   =         0.00000000
  -V(xc)+E(xc)   XCENC  =      -119.48767258
  PAW double counting   =      2519.26517873    -2389.79579636
  entropy T*S    EENTRO =         0.00000000
  eigenvalues    EBANDS =      -426.36773496
  atomic energy  EATOM  =      3793.03632354
  Solvation  Ediel_sol  =         0.00000000
  ---------------------------------------------------
  free energy    TOTEN  =       -32.31532943 eV

  energy without entropy =      -32.31532943  energy(sigma->0) =      -32.31532943


--------------------------------------------------------------------------------------------------------




 average (electrostatic) potential at core
  the test charge radii are     0.9791  0.9587  1.1631  1.1897
  (the norm of the test charge is              1.0000)
       1 -49.1787       2 -49.1779       3 -92.0112       4 -39.4068       5 -96.7345
       6 -96.7344       7 -96.7344       8 -96.9565       9 -96.9564      10 -96.9564



 E-fermi :  -2.1588     XC(G=0):  -3.6454     alpha+bet : -2.9290


 spin component 1

 k-point     1 :       0.0000    0.0000    0.0000
  band No.  band energies     occupation 
      1     -15.2549      1.00000
      2     -14.1472      1.00000
      3     -13.0499      1.00000
      4     -13.0499      1.00000
      5     -12.8617      1.00000
      6     -12.8617      1.00000
      7     -12.1289      1.00000
      8      -9.7510      1.00000
      9      -7.0128      1.00000
     10      -7.0128      1.00000
     11      -6.8576      1.00000
     12      -6.8388      1.00000
     13      -6.3391      1.00000
     14      -6.3391      1.00000
     15      -5.5721      1.00000
     16      -4.9468      1.00000
     17      -4.9467      1.00000
     18      -4.7527      1.00000
     19      -4.7527      1.00000
     20      -4.6878      1.00000
     21      -4.0635      1.00000
     22      -4.0635      1.00000
     23      -3.8326      1.00000
     24      -3.8082      1.00000
     25      -3.7899      1.00000
     26      -3.7899      1.00000
     27      -3.7114      1.00000
     28      -3.7114      1.00000
     29      -3.6934      1.00000
     30      -2.6018      1.00000
     31      -2.6018      1.00000
     32      -2.3078      1.00000
     33      -2.3078      1.00000
     34      -1.6465      0.00000
     35      -1.5349      0.00000
     36      -1.5349      0.00000
     37      -0.9052      0.00000
     38      -0.1899      0.00000
     39      -0.1899      0.00000
     40       0.8171      0.00000
     41       1.1659      0.00000
     42       1.3986      0.00000
     43       1.5914      0.00000
     44       1.5915      0.00000
     45       1.9163      0.00000
     46       2.2571      0.00000
     47       2.8281      0.00000
     48       2.8282      0.00000

 k-point     2 :       0.2000    0.0000    0.0000
  band No.  band energies     occupation 
      1     -15.1582      1.00000
      2     -14.0509      1.00000
      3     -13.3333      1.00000
      4     -13.1515      1.00000
      5     -12.9919      1.00000
      6     -12.9345      1.00000
      7     -11.8430      1.00000
      8      -9.7346      1.00000
      9      -7.1539      1.00000
     10      -6.8943      1.00000
     11      -6.7395      1.00000
     12      -6.6356      1.00000
     13      -5.9715      1.00000
     14      -5.8456      1.00000
     15      -5.3659      1.00000
     16      -5.0939      1.00000
     17      -5.0409      1.00000
     18      -4.9598      1.00000
     19      -4.5750      1.00000
     20      -4.4885      1.00000
     21      -4.3427      1.00000
     22      -4.2666      1.00000
     23      -4.0186      1.00000
     24      -3.9055      1.00000
     25      -3.8346      1.00000
     26      -3.8159      1.00000
     27      -3.7203      1.00000
     28      -3.6782      1.00000
     29      -3.6121      1.00000
     30      -3.2999      1.00000
     31      -2.9712      1.00000
     32      -2.3716      1.00000
     33      -2.2502      1.00000
     34      -2.1555      0.31842
     35      -1.7900      0.00000
     36      -1.0825      0.00000
     37      -0.4618      0.00000
     38      -0.2100      0.00000
     39       0.0450      0.00000
     40       0.9998      0.00000
     41       1.0641      0.00000
     42       1.3958      0.00000
     43       1.5968      0.00000
     44       1.6749      0.00000
     45       2.0575      0.00000
     46       2.3960      0.00000
     47       2.6889      0.00000
     48       2.7246      0.00000

 k-point     3 :       0.4000    0.0000    0.0000
  band No.  band energies     occupation 
      1     -14.9439      1.00000
      2     -13.8478      1.00000
      3     -13.7509      1.00000
      4     -13.2848      1.00000
      5     -13.2121      1.00000
      6     -13.0670      1.00000
      7     -11.5298      1.00000
      8      -9.6763      1.00000
      9      -7.0617      1.00000
     10      -6.7394      1.00000
     11      -6.3882      1.00000
     12      -6.1364      1.00000
     13      -5.5055      1.00000
     14      -5.3846      1.00000
     15      -5.3632      1.00000
     16      -5.2261      1.00000
     17      -5.1516      1.00000
     18      -5.0920      1.00000
     19      -4.7665      1.00000
     20      -4.6845      1.00000
     21      -4.6004      1.00000
     22      -4.2122      1.00000
     23      -4.1360      1.00000
     24      -4.0628      1.00000
     25      -3.9585      1.00000
     26      -3.8474      1.00000
     27      -3.7672      1.00000
     28      -3.5708      1.00000
     29      -3.5435      1.00000
     30      -3.4967      1.00000
     31      -3.3744      1.00000
     32      -2.4822      1.00000
     33      -2.3753      1.00000
     34      -2.1941      1.04322
     35      -2.0328      0.00000
     36      -1.4223      0.00000
     37      -0.8346      0.00000
     38      -0.2999      0.00000
     39       0.4388      0.00000
     40       0.9072      0.00000
     41       1.0232      0.00000
     42       1.3821      0.00000
     43       1.5423      0.00000
     44       2.0477      0.00000
     45       2.4191      0.00000
     46       2.6177      0.00000
     47       2.7652      0.00000
     48       2.8535      0.00000

 k-point     4 :       0.4000    0.2000    0.0000
  band No.  band energies     occupation 
      1     -14.9967      1.00000
      2     -13.8849      1.00000
      3     -13.6036      1.00000
      4     -13.3811      1.00000
      5     -13.1450      1.00000
      6     -13.0235      1.00000
      7     -11.5669      1.00000
      8      -9.6709      1.00000
      9      -7.1721      1.00000
     10      -6.6234      1.00000
     11      -6.5801      1.00000
     12      -6.3582      1.00000
     13      -5.4430      1.00000
     14      -5.3487      1.00000
     15      -5.3367      1.00000
     16      -5.2379      1.00000
     17      -5.1342      1.00000
     18      -5.0216      1.00000
     19      -4.8780      1.00000
     20      -4.6760      1.00000
     21      -4.6594      1.00000
     22      -4.1554      1.00000
     23      -4.1527      1.00000
     24      -3.9391      1.00000
     25      -3.9177      1.00000
     26      -3.8440      1.00000
     27      -3.7147      1.00000
     28      -3.5716      1.00000
     29      -3.5561      1.00000
     30      -3.5167      1.00000
     31      -3.1272      1.00000
     32      -2.7945      1.00000
     33      -2.1858      1.00000
     34      -2.1658      1.00636
     35      -1.7974      0.00000
     36      -1.4822      0.00000
     37      -0.7645      0.00000
     38      -0.1248      0.00000
     39       0.0090      0.00000
     40       0.9032      0.00000
     41       1.1042      0.00000
     42       1.1629      0.00000
     43       1.6961      0.00000
     44       1.9090      0.00000
     45       2.3294      0.00000
     46       2.5495      0.00000
     47       2.6646      0.00000
     48       2.8407      0.00000

 k-point     5 :      -0.4000    0.2000    0.0000
  band No.  band energies     occupation 
      1     -14.8596      1.00000
      2     -13.8227      1.00000
      3     -13.6846      1.00000
      4     -13.5069      1.00000
      5     -13.2837      1.00000
      6     -13.1155      1.00000
      7     -11.4097      1.00000
      8      -9.6062      1.00000
      9      -6.9913      1.00000
     10      -6.5623      1.00000
     11      -6.4726      1.00000
     12      -5.9697      1.00000
     13      -5.9484      1.00000
     14      -5.4659      1.00000
     15      -5.2464      1.00000
     16      -5.1272      1.00000
     17      -5.0964      1.00000
     18      -4.9935      1.00000
     19      -4.8962      1.00000
     20      -4.7843      1.00000
     21      -4.5299      1.00000
     22      -4.2345      1.00000
     23      -4.0261      1.00000
     24      -3.9614      1.00000
     25      -3.8804      1.00000
     26      -3.7728      1.00000
     27      -3.6995      1.00000
     28      -3.6229      1.00000
     29      -3.6100      1.00000
     30      -3.4733      1.00000
     31      -3.2307      1.00000
     32      -2.4852      1.00000
     33      -2.4034      1.00000
     34      -2.3026      1.00000
     35      -1.8252      0.00000
     36      -1.7733      0.00000
     37      -1.0643      0.00000
     38      -0.4775      0.00000
     39      -0.0605      0.00000
     40       0.7440      0.00000
     41       0.9326      0.00000
     42       0.9974      0.00000
     43       1.8613      0.00000
     44       2.3814      0.00000
     45       2.5576      0.00000
     46       2.5913      0.00000
     47       2.6699      0.00000
     48       2.9568      0.00000

 spin component 2

 k-point     1 :       0.0000    0.0000    0.0000
  band No.  band energies     occupation 
      1     -15.1736      1.00000
      2     -14.0500      1.00000
      3     -12.9294      1.00000
      4     -12.9293      1.00000
      5     -12.7502      1.00000
      6     -12.7502      1.00000
      7     -12.0674      1.00000
      8      -9.7006      1.00000
      9      -6.9107      1.00000
     10      -6.9107      1.00000
     11      -6.7803      1.00000
     12      -6.7490      1.00000
     13      -6.2423      1.00000
     14      -6.2423      1.00000
     15      -5.4890      1.00000
     16      -4.5430      1.00000
     17      -4.3439      1.00000
     18      -4.3439      1.00000
     19      -4.1520      1.00000
     20      -4.1520      1.00000
     21      -3.7737      1.00000
     22      -3.7737      1.00000
     23      -3.6883      1.00000
     24      -3.3765      1.00000
     25      -3.3591      1.00000
     26      -3.3591      1.00000
     27      -3.3556      1.00000
     28      -3.3439      1.00000
     29      -3.3439      1.00000
     30      -2.4798      1.00000
     31      -2.4797      1.00000
     32      -1.8184      0.00000
     33      -1.8183      0.00000
     34      -1.5089      0.00000
     35      -1.1434      0.00000
     36      -1.1434      0.00000
     37      -0.8074      0.00000
[...]
     34      -1.3250      0.00000
     35      -0.9928      0.00000
     36      -0.7774      0.00000
     37      -0.0981      0.00000
     38       0.6626      0.00000
     39       0.7105      0.00000
     40       1.3946      0.00000
     41       1.6960      0.00000
     42       1.7467      0.00000
     43       2.4026      0.00000
     44       2.4673      0.00000
     45       2.6944      0.00000
     46       3.1810      0.00000
     47       3.2524      0.00000
     48       3.8404      0.00000

 k-point     5 :      -0.4000    0.2000    0.0000
  band No.  band energies     occupation 
      1     -14.7865      1.00000
      2     -13.7680      1.00000
      3     -13.4669      1.00000
      4     -13.3370      1.00000
      5     -12.9369      1.00000
      6     -12.7958      1.00000
      7     -10.9374      1.00000
      8      -9.2508      1.00000
      9      -6.9538      1.00000
     10      -6.5304      1.00000
     11      -6.2525      1.00000
     12      -5.7094      1.00000
     13      -5.6533      1.00000
     14      -5.1693      1.00000
     15      -5.0704      1.00000
     16      -4.8977      1.00000
     17      -4.7949      1.00000
     18      -4.6343      1.00000
     19      -4.5536      1.00000
     20      -4.3601      1.00000
     21      -4.2668      1.00000
     22      -3.8755      1.00000
     23      -3.6185      1.00000
     24      -3.4793      1.00000
     25      -3.4434      1.00000
     26      -3.3284      1.00000
     27      -3.1922      1.00000
     28      -3.0700      1.00000
     29      -2.9888      1.00000
     30      -2.9781      1.00000
     31      -2.7487      1.00000
     32      -1.8258      1.00000
     33      -1.6372      1.01241
     34      -1.4963      0.00000
     35      -1.0775      0.00000
     36      -0.9243      0.00000
     37      -0.3548      0.00000
     38       0.1745      0.00000
     39       0.6135      0.00000
     40       1.2661      0.00000
     41       1.5024      0.00000
     42       1.5610      0.00000
     43       2.6187      0.00000
     44       2.9388      0.00000
     45       2.9545      0.00000
     46       3.0956      0.00000
     47       3.1299      0.00000
     48       3.6636      0.00000


--------------------------------------------------------------------------------------------------------


 soft charge-density along one line, spin component           1
         0         1         2         3         4         5         6         7         8         9
 total charge-density along one line

 soft charge-density along one line, spin component           2
         0         1         2         3         4         5         6         7         8         9
 total charge-density along one line

 pseudopotential strength for first ion, spin component:           1
 -9.878  -0.079   0.000   0.002   0.000   1.107   0.033  -0.000
 -0.079  -9.929  -0.000  -0.000   0.002   0.033   1.128   0.000
  0.000  -0.000  -9.791   0.000   0.000  -0.000   0.000   1.070
  0.002  -0.000   0.000  -9.929   0.079  -0.001   0.000  -0.000
  0.000   0.002   0.000   0.079  -9.878  -0.000  -0.001  -0.000
  1.107   0.033  -0.000  -0.001  -0.000   0.854  -0.014   0.000
  0.033   1.128   0.000   0.000  -0.001  -0.014   0.845  -0.000
 -0.000   0.000   1.070  -0.000  -0.000   0.000  -0.000   0.869
 -0.001   0.000  -0.000   1.128  -0.033   0.001  -0.000   0.000
 -0.000  -0.001  -0.000  -0.033   1.107   0.000   0.001   0.000
  0.000  -0.000  -0.003  -0.000   0.000  -0.000  -0.000   0.001
 -0.000   0.000   0.000   0.000  -0.000   0.000  -0.000  -0.000
  0.000  -0.003   0.000  -0.000   0.001  -0.000   0.001  -0.000
 -0.000  -0.000  -0.003  -0.000   0.000  -0.000   0.000   0.001
  0.001  -0.000   0.000  -0.003  -0.000   0.000  -0.000  -0.000
  0.000   0.001  -0.000   0.000  -0.001  -0.000  -0.000   0.000
  0.000   0.000   0.001   0.000  -0.000  -0.000  -0.000  -0.001
 -0.001   0.000  -0.000   0.001  -0.000   0.000  -0.000   0.000
 pseudopotential strength for first ion, spin component:           2
 -9.705  -0.012   0.000   0.006   0.000   1.033   0.006  -0.000
 -0.012  -9.707  -0.000  -0.000   0.006   0.006   1.035   0.000
  0.000  -0.000  -9.673   0.000   0.000  -0.000   0.000   1.019
  0.006  -0.000   0.000  -9.707   0.012  -0.002   0.000  -0.000
  0.000   0.006   0.000   0.012  -9.705  -0.000  -0.002  -0.000
  1.033   0.006  -0.000  -0.002  -0.000   0.885  -0.003   0.000
  0.006   1.035   0.000   0.000  -0.002  -0.003   0.884   0.000
 -0.000   0.000   1.019  -0.000  -0.000   0.000   0.000   0.892
 -0.002   0.000  -0.000   1.035  -0.006   0.001  -0.000   0.000
 -0.000  -0.002  -0.000  -0.006   1.033   0.000   0.001   0.000
  0.000  -0.000  -0.002  -0.000   0.000  -0.000  -0.000   0.001
 -0.000   0.000   0.000   0.000  -0.000   0.000  -0.000  -0.000
 -0.000  -0.003   0.000  -0.000   0.001   0.000   0.001  -0.000
 -0.000  -0.000  -0.004  -0.000   0.000  -0.000   0.000   0.002
  0.001  -0.000   0.000  -0.003   0.000   0.000  -0.000  -0.000
  0.000   0.001  -0.000   0.000  -0.001  -0.000  -0.001   0.000
  0.000   0.000   0.001   0.000  -0.000  -0.000  -0.000  -0.001
 -0.001   0.000  -0.000   0.001  -0.000   0.000  -0.000   0.000
 total augmentation occupancy for first ion, spin component:           1
  1.820  -0.132   0.000   0.010  -0.000   0.045   0.067   0.000  -0.007   0.000   0.000  -0.000  -0.002  -0.000   0.011  -0.000
 -0.132   1.713  -0.000  -0.000   0.010   0.068   0.105   0.000   0.000  -0.007   0.000   0.000  -0.004  -0.000   0.002  -0.000
  0.000  -0.000   1.942  -0.000  -0.000   0.000   0.000  -0.018   0.000  -0.000   0.002  -0.001  -0.000  -0.004   0.000   0.000
  0.010  -0.000  -0.000   1.713   0.132  -0.007  -0.000   0.000   0.105  -0.068   0.000   0.000  -0.002  -0.000  -0.004   0.000
 -0.000   0.010  -0.000   0.132   1.820  -0.000  -0.007  -0.000  -0.067   0.045  -0.000   0.000   0.011   0.000   0.002  -0.000
  0.045   0.068   0.000  -0.007  -0.000   0.060   0.041   0.000   0.004  -0.000   0.000  -0.000   0.001   0.000   0.011   0.000
  0.067   0.105   0.000  -0.000  -0.007   0.041   0.096   0.000  -0.000   0.004  -0.000  -0.000   0.001   0.000  -0.001   0.000
  0.000   0.000  -0.018   0.000  -0.000   0.000   0.000   0.042   0.000  -0.000   0.003  -0.005  -0.000   0.001   0.000   0.000
 -0.007   0.000   0.000   0.105  -0.067   0.004  -0.000   0.000   0.096  -0.041   0.000   0.000   0.001   0.000   0.001  -0.000
  0.000  -0.007  -0.000  -0.068   0.045  -0.000   0.004  -0.000  -0.041   0.060  -0.000   0.000   0.011  -0.000  -0.001  -0.002
  0.000   0.000   0.002   0.000  -0.000   0.000  -0.000   0.003   0.000  -0.000   1.017  -0.275  -0.000  -0.000   0.000  -0.000
 -0.000   0.000  -0.001   0.000   0.000  -0.000  -0.000  -0.005   0.000   0.000  -0.275   0.124  -0.000   0.001   0.000   0.000
 -0.002  -0.004  -0.000  -0.002   0.011   0.001   0.001  -0.000   0.001   0.011  -0.000   0.000   0.181   0.000  -0.000  -0.012
 -0.000  -0.000  -0.004  -0.000   0.000   0.000   0.000   0.001   0.000  -0.000  -0.000   0.001   0.000   0.183   0.000  -0.000
  0.011   0.002   0.000  -0.004   0.002   0.011  -0.001   0.000   0.001  -0.001   0.000  -0.000  -0.000   0.000   0.181   0.000
 -0.000  -0.000   0.000   0.000  -0.000   0.000   0.000   0.000  -0.000  -0.002  -0.000   0.000  -0.012  -0.000   0.000   0.001
 -0.000  -0.000  -0.000   0.000   0.000  -0.000   0.000  -0.000  -0.000   0.000  -0.000  -0.000  -0.000  -0.013  -0.000   0.000
 -0.000  -0.000  -0.000  -0.000   0.000  -0.002   0.000  -0.000   0.000  -0.000  -0.000   0.000  -0.000  -0.000  -0.012  -0.000
 total augmentation occupancy for first ion, spin component:           2
  0.027   0.039   0.000   0.002  -0.000  -0.023  -0.019  -0.000  -0.001   0.000  -0.000  -0.000  -0.002  -0.000  -0.001  -0.000
  0.039   0.056   0.000  -0.000   0.002  -0.019  -0.036  -0.000   0.000  -0.001   0.000   0.000  -0.002   0.000  -0.002  -0.000
  0.000   0.000  -0.005   0.000  -0.000  -0.000  -0.000  -0.007  -0.000   0.000  -0.001  -0.000  -0.000  -0.000  -0.000  -0.000
  0.002  -0.000   0.000   0.056  -0.039  -0.001  -0.000  -0.000  -0.036   0.019   0.000   0.000   0.002   0.000  -0.002  -0.000
 -0.000   0.002  -0.000  -0.039   0.027  -0.000  -0.001   0.000   0.019  -0.023   0.000   0.000  -0.001   0.000   0.002   0.000
 -0.023  -0.019  -0.000  -0.001  -0.000   0.005   0.007   0.000   0.001  -0.000   0.000   0.000   0.001   0.000   0.000  -0.000
 -0.019  -0.036  -0.000  -0.000  -0.001   0.007   0.009   0.000  -0.000   0.001  -0.000  -0.000   0.001   0.000   0.001  -0.000
 -0.000  -0.000  -0.007  -0.000   0.000   0.000   0.000  -0.001   0.000  -0.000   0.001   0.000   0.000   0.000   0.000  -0.000
 -0.001   0.000  -0.000  -0.036   0.019   0.001  -0.000   0.000   0.009  -0.007   0.000   0.000  -0.001  -0.000   0.001   0.000
  0.000  -0.001   0.000   0.019  -0.023  -0.000   0.001  -0.000  -0.007   0.005  -0.000  -0.000   0.000  -0.000  -0.001   0.000
 -0.000   0.000  -0.001   0.000   0.000   0.000  -0.000   0.001  -0.000  -0.000   0.004   0.008   0.000  -0.000   0.000  -0.000
 -0.000   0.000  -0.000   0.000   0.000   0.000  -0.000   0.000   0.000  -0.000   0.008  -0.004   0.000  -0.000  -0.000  -0.000
 -0.002  -0.002  -0.000   0.002  -0.001   0.001   0.001   0.000  -0.001   0.000   0.000  -0.000   0.000  -0.000  -0.000   0.000
 -0.000   0.000  -0.000   0.000   0.000   0.000  -0.000   0.000  -0.000  -0.000  -0.000  -0.000   0.000  -0.000   0.000   0.000
 -0.001  -0.002  -0.000  -0.002   0.002   0.000   0.001   0.000   0.001  -0.001   0.000   0.000  -0.000   0.000   0.000   0.000
 -0.000  -0.000  -0.000  -0.000   0.000  -0.000  -0.000  -0.000   0.000   0.000  -0.000  -0.000   0.000   0.000   0.000  -0.000
 -0.000  -0.000  -0.000  -0.000   0.000   0.000   0.000   0.000   0.000  -0.000  -0.000   0.000   0.000   0.000   0.000  -0.000
  0.000   0.000  -0.000  -0.000   0.000   0.000  -0.000   0.000  -0.000   0.000  -0.000  -0.000  -0.000  -0.000   0.000   0.000


------------------------ aborting loop because EDIFF is reached ----------------------------------------





 total charge     

# of ion       s       p       d       tot
------------------------------------------
    1        0.392   0.413   8.390   9.195
    2        0.392   0.413   8.391   9.197
    3        1.090   1.350   0.000   2.440
    4        1.170   1.153   0.086   2.409
    5        1.410   1.913   0.042   3.365
    6        1.400   1.922   0.042   3.364
    7        1.406   1.913   0.042   3.361
    8        1.419   1.887   0.046   3.352
    9        1.403   1.854   0.049   3.306
   10        1.415   1.879   0.047   3.341
--------------------------------------------------
tot         11.497  14.698  17.135  43.329



 magnetization (x)

# of ion       s       p       d       tot
------------------------------------------
    1        0.000  -0.001   0.215   0.215
    2       -0.000   0.001  -0.215  -0.215
    3        0.000   0.000   0.000   0.000
    4       -0.000  -0.000   0.000  -0.000
    5       -0.000   0.005   0.000   0.005
    6       -0.000   0.002   0.000   0.002
    7        0.000  -0.006  -0.000  -0.006
    8        0.001   0.010  -0.000   0.011
    9        0.000  -0.001   0.000  -0.000
   10       -0.001  -0.010   0.000  -0.011
--------------------------------------------------
tot          0.000  -0.000   0.000   0.000

    CHARGE:  cpu time    2.2200: real time    2.2227
    FORLOC:  cpu time    0.0640: real time    0.0632
    FORNL :  cpu time    6.6640: real time    6.6710
    STRESS:  cpu time   19.9320: real time   19.9639
    FORCOR:  cpu time   50.8080: real time   50.9931
    FORHAR:  cpu time    0.3320: real time    0.3299
    MIXING:  cpu time    0.0400: real time    0.0409
    OFIELD:  cpu time    0.0000: real time    0.0001

  FORCE on cell =-STRESS in cart. coord.  units (eV):
  Direction    XX          YY          ZZ          XY          YZ          ZX
  --------------------------------------------------------------------------------------
  Alpha Z    22.27718    22.27718    22.27718
  Ewald    9583.12909  9583.12644-11647.85362    -0.00228    -0.00060    -0.00110
  Hartree 10319.90623 10319.90738 -9674.02725    -0.00039     0.00009     0.00015
  E(xc)    -284.98559  -284.98557  -284.85394     0.00002     0.00002     0.00001
  Local  -20778.99217-20778.99164 20409.86896     0.00240     0.00039     0.00073
  n-local   667.70929   667.44754   679.35806    -0.35865     0.64169     0.76572
  augment   -64.64423   -64.64413   -71.63642     0.00009     0.00004     0.00004
  Kinetic   540.12701   531.57020   567.18904    -4.99658    -0.59262    -0.57511
  Fock        0.00000     0.00000     0.00000     0.00000     0.00000     0.00000
  -------------------------------------------------------------------------------------
  Total       0.11710     0.11710     0.32201     0.00000     0.00000     0.00000
  in kB       0.21764     0.21764     0.59848     0.00000     0.00000     0.00000
  external pressure =        0.34 kB  Pullay stress =        0.00 kB


 VOLUME and BASIS-vectors are now :
 -----------------------------------------------------------------------------
  energy-cutoff  :      520.00
  volume of cell :      862.03
      direct lattice vectors                 reciprocal lattice vectors
     6.809940688  0.000000645 -0.000000000     0.146844165 -0.084780493  0.000000000
     3.404969309  5.897581608 -0.000000000    -0.000000016  0.169561037 -0.000000000
     0.000000000  0.000000000 21.463827430     0.000000000  0.000000000  0.046590013

  length of vectors
     6.809940688  6.809940148 21.463827430     0.169561024  0.169561037  0.046590013


 FORCES acting on ions
    electron-ion (+dipol)            ewald-force                    non-local-force                 convergence-correction
 -----------------------------------------------------------------------------------------------
   0.875E-04 0.447E-04 -.112E+02   0.724E-03 0.436E-03 0.115E+02   -.695E-17 -.142E-16 -.273E+00   0.103E-06 0.122E-06 0.207E-02
   -.108E-03 -.240E-04 -.138E+02   -.730E-03 -.439E-03 0.141E+02   -.695E-17 -.329E-18 -.320E+00   -.107E-06 0.168E-06 0.214E-02
   -.444E-04 -.362E-04 0.262E+03   -.197E-03 -.109E-03 -.262E+03   0.139E-16 -.551E-16 0.393E+00   0.171E-07 -.240E-08 -.675E-02
   0.666E-04 -.349E-04 -.200E+03   0.144E-03 0.794E-04 0.200E+03   0.709E-20 0.258E-18 0.251E+00   0.104E-07 0.272E-08 0.562E-02
   -.313E+02 0.159E+00 -.435E+03   0.281E+02 -.168E+00 0.439E+03   0.270E+01 -.748E-02 -.406E+01   -.187E-02 0.107E-01 0.108E-01
   0.158E+02 0.271E+02 -.435E+03   -.142E+02 -.243E+02 0.439E+03   -.136E+01 -.233E+01 -.406E+01   0.102E-01 -.372E-02 0.108E-01
   0.155E+02 -.272E+02 -.435E+03   -.139E+02 0.244E+02 0.439E+03   -.134E+01 0.234E+01 -.406E+01   -.830E-02 -.695E-02 0.108E-01
   0.215E+02 -.175E+00 0.423E+03   -.191E+02 0.159E+00 -.427E+03   -.202E+01 0.903E-02 0.366E+01   0.193E-02 0.108E-01 -.967E-02
   -.109E+02 -.186E+02 0.423E+03   0.968E+01 0.164E+02 -.427E+03   0.102E+01 0.174E+01 0.366E+01   0.838E-02 -.706E-02 -.967E-02
   -.106E+02 0.187E+02 0.423E+03   0.940E+01 -.166E+02 -.427E+03   0.100E+01 -.175E+01 0.366E+01   -.103E-01 -.372E-02 -.967E-02
 -----------------------------------------------------------------------------------------------
   0.493E-04 -.174E-03 0.115E+01   0.533E-14 -.711E-14 -.568E-13   -.222E-15 -.666E-15 -.114E+01   0.391E-07 0.307E-06 0.661E-02


 POSITION                                       TOTAL-FORCE (eV/Angst)
 -----------------------------------------------------------------------------------
      3.40497      1.96586     10.72332        -0.000000     -0.000000      0.009921
      6.80994      3.93172     10.72677        -0.000000     -0.000000      0.013979
     -0.00000      0.00000      9.44060        -0.000000     -0.000000     -0.008317
      0.00000      0.00000     11.84340        -0.000000     -0.000000     -0.160063
      4.26688      0.00248     12.31491        -0.523153     -0.005317      0.086084
      1.27368      2.20112     12.31491         0.256972      0.455722      0.086084
      4.67436      3.69399     12.31491         0.266181     -0.450405      0.086084
      5.94803      5.89510      9.14891         0.435309      0.004057     -0.037924
      8.94123      3.69646      9.14891        -0.214141     -0.379017     -0.037924
      5.54055      2.20359      9.14891        -0.221168      0.374960     -0.037924
 -----------------------------------------------------------------------------------
    total drift:                                0.000049     -0.000174      0.015230


--------------------------------------------------------------------------------------------------------



  FREE ENERGIE OF THE ION-ELECTRON SYSTEM (eV)
  ---------------------------------------------------
  free  energy   TOTEN  =       -32.77245362 eV

  energy  without entropy=      -32.77245362  energy(sigma->0) =      -32.77245362

 d Force = 0.3689445E-05[ 0.285E-05, 0.453E-05]  d Energy =-0.3784805E-04 0.415E-04
 d Force = 0.7431135E-01[ 0.743E-01, 0.743E-01]  d Ewald  =-0.2709369E+01 0.278E+01


--------------------------------------------------------------------------------------------------------


    POTLOK:  cpu time   50.7440: real time   51.0890


--------------------------------------------------------------------------------------------------------




--------------------------------------------------------------------------------------------------------


  
 reached required accuracy - stopping structural energy minimisation
     LOOP+:  cpu time  446.5920: real time  447.9572
    4ORBIT:  cpu time    0.0000: real time    0.0000



 total charge     

# of ion       s       p       d       tot
------------------------------------------
    1        0.392   0.413   8.390   9.195
    2        0.392   0.413   8.391   9.197
    3        1.090   1.350   0.000   2.440
    4        1.170   1.153   0.086   2.409
    5        1.410   1.913   0.042   3.365
    6        1.400   1.922   0.042   3.364
    7        1.406   1.913   0.042   3.361
    8        1.419   1.887   0.046   3.352
    9        1.403   1.854   0.049   3.306
   10        1.415   1.879   0.047   3.341
--------------------------------------------------
tot         11.497  14.698  17.135  43.329



 magnetization (x)

# of ion       s       p       d       tot
------------------------------------------
    1        0.000  -0.001   0.215   0.215
    2       -0.000   0.001  -0.215  -0.215
    3        0.000   0.000   0.000   0.000
    4       -0.000  -0.000   0.000  -0.000
    5       -0.000   0.005   0.000   0.005
    6       -0.000   0.002   0.000   0.002
    7        0.000  -0.006  -0.000  -0.006
    8        0.001   0.010  -0.000   0.011
    9        0.000  -0.001   0.000  -0.000
   10       -0.001  -0.010   0.000  -0.011
--------------------------------------------------
tot          0.000  -0.000   0.000   0.000

 BZINTS: Fermi energy: -1.517756; 65.000000 electrons
         Band energy:-411.507328;  BLOECHL correction: -0.024546

 total amount of memory used by VASP MPI-rank0   131709. kBytes
=======================================================================

   base      :      30000. kBytes
   nonlr-proj:       9209. kBytes
   fftplans  :      11247. kBytes
   grid      :      68332. kBytes
   one-center:        311. kBytes
   wavefun   :      12610. kBytes

  
  
 General timing and accounting informations for this job:
 ========================================================
  
                  Total CPU time used (sec):    12548.320
                            User time (sec):    12281.884
                          System time (sec):      266.436
                         Elapsed time (sec):    12611.505
  
                   Maximum memory used (kb):      385460.
                   Average memory used (kb):           0.
  
                          Minor page faults:     11505250
                          Major page faults:            8
                 Voluntary context switches:         1108
