PROCAR lm decomposed
# of k-points:    5         # of bands:   48         # of ions:   10

 k-point     1 :    0.00000000 0.00000000 0.00000000     weight = 0.04000000

band     1 # energy  -15.25669724 # occ.  1.00000000

ion      s     py     pz     px    dxy    dyz    dz2    dxz  x2-y2    tot
    1  0.011  0.000  0.000  0.000  0.000  0.000  0.000  0.000  0.000  0.011
    2  0.011  0.000  0.000  0.000  0.000  0.000  0.000  0.000  0.000  0.011
    3  0.145  0.000  0.001  0.000  0.000  0.000  0.000  0.000  0.000  0.146
    4  0.059  0.000  0.002  0.000  0.000  0.000  0.000  0.000  0.000  0.062
    5  0.036  0.000  0.001  0.000  0.000  0.000  0.000  0.000  0.000  0.037
    6  0.036  0.000  0.001  0.000  0.000  0.000  0.000  0.000  0.000  0.037
    7  0.036  0.000  0.001  0.000  0.000  0.000  0.000  0.000  0.000  0.037
    8  0.084  0.000  0.001  0.002  0.000  0.000  0.000  0.000  0.000  0.087
    9  0.084  0.001  0.001  0.000  0.000  0.000  0.000  0.000  0.000  0.087
   10  0.084  0.001  0.001  0.000  0.000  0.000  0.000  0.000  0.000  0.087
tot    0.587  0.003  0.007  0.003  0.000  0.000  0.000  0.000  0.000  0.602

band     2 # energy  -13.87117831 # occ.  1.00000000

ion      s     py     pz     px    dxy    dyz    dz2    dxz  x2-y2    tot
    1  0.002  0.000  0.005  0.000  0.000  0.000  0.000  0.000  0.000  0.006
    2  0.002  0.000  0.005  0.000  0.000  0.000  0.000  0.000  0.000  0.006
    3  0.049  0.000  0.001  0.000  0.000  0.000  0.000  0.000  0.000  0.050
    4  0.064  0.000  0.003  0.000  0.000  0.000  0.001  0.000  0.000  0.068
    5  0.132  0.000  0.000  0.001  0.000  0.000  0.000  0.000  0.000  0.134
    6  0.132  0.001  0.000  0.000  0.000  0.000  0.000  0.000  0.000  0.134
    7  0.132  0.001  0.000  0.000  0.000  0.000  0.000  0.000  0.000  0.134
    8  0.042  0.000  0.000  0.001  0.000  0.000  0.000  0.000  0.000  0.043
    9  0.042  0.001  0.000  0.000  0.000  0.000  0.000  0.000  0.000  0.043
   10  0.042  0.001  0.000  0.000  0.000  0.000  0.000  0.000  0.000  0.043
tot    0.639  0.003  0.014  0.003  0.000  0.000  0.002  0.000  0.000  0.661

band     3 # energy  -12.81810953 # occ.  1.00000000

ion      s     py     pz     px    dxy    dyz    dz2    dxz  x2-y2    tot
    1  0.000  0.006  0.000  0.000  0.001  0.002  0.000  0.000  0.001  0.010
    2  0.000  0.004  0.000  0.002  0.000  0.001  0.000  0.001  0.002  0.010
    3  0.000  0.001  0.000  0.014  0.000  0.000  0.000  0.000  0.000  0.015
    4  0.000  0.000  0.000  0.000  0.000  0.000  0.000  0.000  0.000  0.001
    5  0.036  0.000  0.000  0.000  0.000  0.000  0.000  0.000  0.000  0.036
    6  0.022  0.000  0.000  0.000  0.000  0.000  0.000  0.000  0.000  0.023
    7  0.002  0.000  0.000  0.000  0.000  0.000  0.000  0.000  0.000  0.002
    8  0.371  0.000  0.001  0.001  0.000  0.000  0.000  0.000  0.000  0.373
    9  0.226  0.000  0.001  0.000  0.000  0.000  0.000  0.000  0.000  0.228
   10  0.018  0.000  0.000  0.000  0.000  0.000  0.000  0.000  0.000  0.018
tot    0.675  0.012  0.002  0.017  0.001  0.002  0.000  0.002  0.003  0.714

band     4 # energy  -12.81807620 # occ.  1.00000000

ion      s     py     pz     px    dxy    dyz    dz2    dxz  x2-y2    tot
    1  0.000  0.000  0.000  0.006  0.001  0.000  0.000  0.002  0.001  0.010
    2  0.000  0.002  0.000  0.004  0.002  0.001  0.000  0.001  0.000  0.010
    3  0.000  0.014  0.000  0.001  0.000  0.000  0.000  0.000  0.000  0.015
    4  0.000  0.000  0.000  0.000  0.000  0.000  0.000  0.000  0.000  0.001
    5  0.004  0.000  0.000  0.000  0.000  0.000  0.000  0.000  0.000  0.004
    6  0.018  0.000  0.000  0.000  0.000  0.000  0.000  0.000  0.000  0.018
    7  0.038  0.000  0.000  0.000  0.000  0.000  0.000  0.000  0.000  0.039
    8  0.039  0.000  0.000  0.000  0.000  0.000  0.000  0.000  0.000  0.039
    9  0.184  0.000  0.000  0.000  0.000  0.000  0.000  0.000  0.000  0.185
   10  0.392  0.001  0.001  0.000  0.000  0.000  0.000  0.000  0.000  0.394
tot    0.675  0.017  0.002  0.012  0.003  0.002  0.000  0.002  0.001  0.714

band     5 # energy  -12.57340739 # occ.  1.00000000

ion      s     py     pz     px    dxy    dyz    dz2    dxz  x2-y2    tot
    1  0.000  0.001  0.000  0.002  0.001  0.004  0.000  0.001  0.001  0.009
    2  0.000  0.002  0.000  0.001  0.002  0.004  0.000  0.000  0.000  0.009
    3  0.000  0.000  0.000  0.003  0.000  0.000  0.000  0.000  0.000  0.003
    4  0.000  0.001  0.000  0.020  0.000  0.000  0.000  0.000  0.002  0.022
    5  0.398  0.000  0.001  0.002  0.000  0.000  0.000  0.000  0.000  0.401
    6  0.177  0.001  0.000  0.000  0.000  0.000  0.000  0.000  0.000  0.179
    7  0.044  0.000  0.000  0.000  0.000  0.000  0.000  0.000  0.000  0.044
    8  0.036  0.000  0.000  0.001  0.000  0.000  0.000  0.000  0.000  0.037
    9  0.016  0.000  0.000  0.000  0.000  0.000  0.000  0.000  0.000  0.016
   10  0.004  0.000  0.000  0.000  0.000  0.000  0.000  0.000  0.000  0.004
tot    0.675  0.005  0.001  0.028  0.003  0.008  0.000  0.001  0.003  0.725

band     6 # energy  -12.57337039 # occ.  1.00000000

ion      s     py     pz     px    dxy    dyz    dz2    dxz  x2-y2    tot
    1  0.000  0.002  0.000  0.001  0.001  0.001  0.000  0.004  0.001  0.009
    2  0.000  0.001  0.000  0.002  0.000  0.000  0.000  0.004  0.002  0.009
    3  0.000  0.003  0.000  0.000  0.000  0.000  0.000  0.000  0.000  0.003
    4  0.000  0.020  0.000  0.001  0.002  0.000  0.000  0.000  0.000  0.022
    5  0.015  0.000  0.000  0.000  0.000  0.000  0.000  0.000  0.000  0.015
    6  0.235  0.001  0.001  0.000  0.000  0.000  0.000  0.000  0.000  0.237
    7  0.369  0.001  0.001  0.000  0.000  0.000  0.000  0.000  0.000  0.372
    8  0.001  0.000  0.000  0.000  0.000  0.000  0.000  0.000  0.000  0.001
    9  0.021  0.000  0.000  0.000  0.000  0.000  0.000  0.000  0.000  0.022
   10  0.033  0.001  0.000  0.000  0.000  0.000  0.000  0.000  0.000  0.034
tot    0.675  0.028  0.001  0.005  0.003  0.001  0.000  0.008  0.003  0.725

band     7 # energy  -11.81547228 # occ.  1.00000000

ion      s     py     pz     px    dxy    dyz    dz2    dxz  x2-y2    tot
    1  0.016  0.000  0.001  0.000  0.000  0.000  0.000  0.000  0.000  0.017
    2  0.017  0.000  0.001  0.000  0.000  0.000  0.000  0.000  0.000  0.018
    3  0.220  0.000  0.006  0.000  0.000  0.000  0.000  0.000  0.000  0.226
    4  0.092  0.000  0.010  0.000  0.000  0.000  0.001  0.000  0.000  0.104
    5  0.008  0.000  0.000  0.003  0.000  0.000  0.000  0.000  0.000  0.012
    6  0.008  0.002  0.000  0.001  0.000  0.000  0.000  0.000  0.000  0.012
    7  0.008  0.002  0.000  0.001  0.000  0.000  0.000  0.000  0.000  0.012
    8  0.070  0.000  0.000  0.010  0.000  0.000  0.000  0.000  0.001  0.081
    9  0.070  0.008  0.000  0.003  0.001  0.000  0.000  0.000  0.000  0.081
   10  0.070  0.008  0.000  0.003  0.001  0.000  0.000  0.000  0.000  0.081
tot    0.579  0.021  0.018  0.021  0.001  0.000  0.002  0.000  0.001  0.643

band     8 # energy   -9.32915720 # occ.  1.00000000

ion      s     py     pz     px    dxy    dyz    dz2    dxz  x2-y2    tot
    1  0.001  0.000  0.005  0.000  0.000  0.000  0.000  0.000  0.000  0.006
    2  0.001  0.000  0.005  0.000  0.000  0.000  0.000  0.000  0.000  0.006
    3  0.089  0.000  0.017  0.000  0.000  0.000  0.000  0.000  0.000  0.106
    4  0.333  0.000  0.001  0.000  0.000  0.000  0.000  0.000  0.000  0.334
    5  0.029  0.000  0.000  0.023  0.000  0.000  0.000  0.000  0.001  0.054
    6  0.029  0.017  0.000  0.006  0.001  0.000  0.000  0.000  0.000  0.054
    7  0.029  0.017  0.000  0.006  0.001  0.000  0.000  0.000  0.000  0.054
    8  0.010  0.000  0.000  0.007  0.000  0.000  0.000  0.000  0.001  0.018
    9  0.010  0.005  0.000  0.002  0.000  0.000  0.000  0.000  0.000  0.018
   10  0.010  0.005  0.000  0.002  0.000  0.000  0.000  0.000  0.000  0.018
tot    0.541  0.044  0.030  0.044  0.003  0.000  0.001  0.000  0.003  0.666

band     9 # energy   -6.90152213 # occ.  1.00000000

ion      s     py     pz     px    dxy    dyz    dz2    dxz  x2-y2    tot
    1  0.000  0.000  0.000  0.004  0.000  0.011  0.000  0.016  0.002  0.033
    2  0.000  0.005  0.000  0.000  0.002  0.019  0.000  0.004  0.000  0.030
    3  0.000  0.040  0.000  0.066  0.000  0.000  0.000  0.000  0.000  0.106
    4  0.000  0.005  0.000  0.008  0.000  0.000  0.000  0.000  0.000  0.014
    5  0.005  0.001  0.005  0.005  0.000  0.000  0.000  0.000  0.000  0.017
    6  0.007  0.008  0.007  0.001  0.000  0.000  0.000  0.000  0.000  0.022
    7  0.000  0.000  0.000  0.003  0.000  0.000  0.000  0.000  0.000  0.004
    8  0.008  0.011  0.000  0.074  0.000  0.000  0.000  0.000  0.000  0.094
    9  0.011  0.096  0.000  0.011  0.000  0.000  0.000  0.000  0.000  0.119
   10  0.000  0.002  0.000  0.029  0.000  0.000  0.000  0.000  0.001  0.032
tot    0.033  0.168  0.012  0.201  0.003  0.031  0.000  0.021  0.003  0.473

band    10 # energy   -6.90150153 # occ.  1.00000000

ion      s     py     pz     px    dxy    dyz    dz2    dxz  x2-y2    tot
    1  0.000  0.004  0.000  0.000  0.002  0.016  0.000  0.011  0.000  0.033
    2  0.000  0.000  0.000  0.005  0.000  0.004  0.000  0.019  0.002  0.030
    3  0.000  0.066  0.000  0.040  0.000  0.000  0.000  0.000  0.000  0.106
    4  0.000  0.008  0.000  0.005  0.000  0.000  0.000  0.000  0.000  0.014
    5  0.003  0.002  0.003  0.003  0.000  0.000  0.000  0.000  0.000  0.012
    6  0.001  0.000  0.001  0.004  0.000  0.000  0.000  0.000  0.000  0.007
    7  0.008  0.007  0.008  0.002  0.000  0.000  0.000  0.000  0.000  0.025
    8  0.005  0.018  0.000  0.045  0.001  0.000  0.000  0.000  0.000  0.070
    9  0.002  0.001  0.000  0.041  0.000  0.000  0.000  0.000  0.000  0.045
   10  0.013  0.094  0.000  0.023  0.000  0.000  0.000  0.000  0.000  0.131
tot    0.033  0.201  0.012  0.168  0.003  0.021  0.000  0.031  0.003  0.473

band    11 # energy   -6.89720214 # occ.  1.00000000

ion      s     py     pz     px    dxy    dyz    dz2    dxz  x2-y2    tot
    1  0.098  0.000  0.000  0.000  0.000  0.000  0.009  0.000  0.000  0.106
    2  0.093  0.000  0.000  0.000  0.000  0.000  0.009  0.000  0.000  0.102
    3  0.000  0.000  0.000  0.000  0.000  0.000  0.000  0.000  0.000  0.000
    4  0.000  0.000  0.000  0.000  0.000  0.000  0.000  0.000  0.000  0.000
    5  0.000  0.045  0.000  0.000  0.000  0.001  0.000  0.000  0.000  0.046
    6  0.000  0.011  0.000  0.034  0.000  0.000  0.000  0.000  0.000  0.046
    7  0.000  0.012  0.000  0.034  0.000  0.000  0.000  0.000  0.000  0.046
    8  0.000  0.054  0.000  0.000  0.000  0.001  0.000  0.000  0.000  0.055
    9  0.000  0.013  0.000  0.040  0.000  0.000  0.000  0.000  0.000  0.054
   10  0.000  0.013  0.000  0.040  0.000  0.000  0.000  0.000  0.000  0.055
tot    0.190  0.148  0.000  0.148  0.001  0.002  0.017  0.002  0.001  0.510

band    12 # energy   -6.65577135 # occ.  1.00000000

ion      s     py     pz     px    dxy    dyz    dz2    dxz  x2-y2    tot
    1  0.033  0.000  0.000  0.000  0.000  0.000  0.012  0.000  0.000  0.045
    2  0.037  0.000  0.000  0.000  0.000  0.000  0.011  0.000  0.000  0.048
    3  0.000  0.000  0.057  0.000  0.000  0.000  0.000  0.000  0.000  0.057
    4  0.004  0.000  0.057  0.000  0.000  0.000  0.001  0.000  0.000  0.061
    5  0.003  0.000  0.030  0.008  0.000  0.000  0.000  0.000  0.000  0.041
    6  0.003  0.006  0.030  0.002  0.000  0.000  0.000  0.000  0.000  0.041
    7  0.003  0.005  0.030  0.002  0.000  0.000  0.000  0.000  0.000  0.041
    8  0.005  0.000  0.037  0.003  0.000  0.000  0.000  0.000  0.000  0.045
    9  0.005  0.002  0.037  0.001  0.000  0.000  0.000  0.000  0.000  0.045
   10  0.005  0.002  0.037  0.001  0.000  0.000  0.000  0.000  0.000  0.045
tot    0.098  0.016  0.313  0.016  0.001  0.000  0.026  0.000  0.001  0.470

band    13 # energy   -6.27405009 # occ.  1.00000000

ion      s     py     pz     px    dxy    dyz    dz2    dxz  x2-y2    tot
    1  0.000  0.013  0.000  0.000  0.004  0.016  0.000  0.003  0.005  0.040
    2  0.000  0.007  0.000  0.005  0.000  0.002  0.000  0.015  0.008  0.038
    3  0.000  0.001  0.000  0.007  0.000  0.000  0.000  0.000  0.000  0.008
    4  0.000  0.014  0.000  0.068  0.000  0.000  0.000  0.001  0.000  0.083
    5  0.001  0.006  0.002  0.106  0.000  0.000  0.000  0.001  0.000  0.117
    6  0.001  0.095  0.001  0.002  0.000  0.001  0.000  0.000  0.000  0.100
    7  0.000  0.017  0.000  0.023  0.000  0.000  0.000  0.000  0.001  0.040
    8  0.001  0.000  0.015  0.013  0.000  0.000  0.001  0.000  0.000  0.031
    9  0.001  0.011  0.012  0.001  0.000  0.000  0.000  0.000  0.000  0.024
   10  0.000  0.001  0.000  0.001  0.000  0.000  0.000  0.000  0.000  0.003
tot    0.005  0.165  0.030  0.227  0.004  0.019  0.002  0.019  0.014  0.485

band    14 # energy   -6.27402563 # occ.  1.00000000

ion      s     py     pz     px    dxy    dyz    dz2    dxz  x2-y2    tot
    1  0.000  0.000  0.000  0.013  0.005  0.003  0.000  0.016  0.004  0.040
    2  0.000  0.005  0.000  0.007  0.008  0.015  0.000  0.002  0.000  0.038
    3  0.000  0.007  0.000  0.001  0.000  0.000  0.000  0.000  0.000  0.008
    4  0.000  0.068  0.000  0.014  0.000  0.001  0.000  0.000  0.000  0.083
    5  0.000  0.032  0.000  0.021  0.001  0.000  0.000  0.000  0.000  0.055
    6  0.000  0.010  0.001  0.059  0.000  0.000  0.000  0.000  0.000  0.071
    7  0.001  0.089  0.002  0.038  0.000  0.000  0.000  0.000  0.000  0.131
    8  0.000  0.002  0.003  0.003  0.000  0.000  0.000  0.000  0.000  0.008
    9  0.001  0.002  0.006  0.006  0.000  0.000  0.000  0.000  0.000  0.014
   10  0.002  0.011  0.017  0.005  0.000  0.000  0.001  0.000  0.000  0.036
tot    0.005  0.227  0.030  0.165  0.014  0.019  0.002  0.019  0.004  0.485

band    15 # energy   -5.27810620 # occ.  1.00000000

ion      s     py     pz     px    dxy    dyz    dz2    dxz  x2-y2    tot
    1  0.000  0.000  0.039  0.000  0.000  0.000  0.000  0.000  0.000  0.039
    2  0.000  0.000  0.038  0.000  0.000  0.000  0.000  0.000  0.000  0.038
    3  0.000  0.000  0.000  0.000  0.000  0.000  0.000  0.000  0.000  0.000
    4  0.000  0.000  0.000  0.000  0.000  0.000  0.000  0.000  0.000  0.000
    5  0.000  0.069  0.000  0.000  0.000  0.000  0.000  0.000  0.000  0.069
    6  0.000  0.017  0.000  0.052  0.000  0.000  0.000  0.000  0.000  0.069
    7  0.000  0.017  0.000  0.051  0.000  0.000  0.000  0.000  0.000  0.069
    8  0.000  0.061  0.000  0.000  0.000  0.000  0.000  0.000  0.000  0.061
    9  0.000  0.015  0.000  0.046  0.000  0.000  0.000  0.000  0.000  0.061
   10  0.000  0.015  0.000  0.045  0.000  0.000  0.000  0.000  0.000  0.061
tot    0.000  0.194  0.077  0.194  0.001  0.000  0.000  0.000  0.001  0.469

band    16 # energy   -4.58849417 # occ.  1.00000000

ion      s     py     pz     px    dxy    dyz    dz2    dxz  x2-y2    tot
    1  0.000  0.000  0.000  0.000  0.001  0.002  0.000  0.231  0.225  0.458
    2  0.000  0.000  0.000  0.000  0.001  0.001  0.000  0.088  0.077  0.168
    3  0.000  0.000  0.000  0.000  0.000  0.000  0.000  0.000  0.000  0.000
    4  0.000  0.000  0.000  0.000  0.000  0.000  0.000  0.000  0.000  0.001
    5  0.001  0.001  0.018  0.002  0.000  0.000  0.000  0.000  0.000  0.022
    6  0.001  0.004  0.010  0.023  0.000  0.000  0.000  0.001  0.000  0.039
    7  0.000  0.002  0.001  0.017  0.000  0.000  0.000  0.001  0.000  0.021
    8  0.001  0.000  0.021  0.003  0.000  0.000  0.000  0.000  0.000  0.025
    9  0.000  0.004  0.000  0.025  0.000  0.000  0.000  0.001  0.000  0.031
   10  0.001  0.003  0.016  0.025  0.000  0.000  0.000  0.001  0.000  0.046
tot    0.004  0.015  0.065  0.095  0.002  0.003  0.000  0.322  0.303  0.811

band    17 # energy   -4.58848500 # occ.  1.00000000

ion      s     py     pz     px    dxy    dyz    dz2    dxz  x2-y2    tot
    1  0.000  0.000  0.000  0.000  0.225  0.231  0.000  0.002  0.001  0.458
    2  0.000  0.000  0.000  0.000  0.077  0.088  0.000  0.001  0.001  0.168
    3  0.000  0.000  0.000  0.000  0.000  0.000  0.000  0.000  0.000  0.000
    4  0.000  0.000  0.000  0.000  0.000  0.000  0.000  0.000  0.000  0.001
    5  0.000  0.030  0.001  0.000  0.000  0.001  0.000  0.000  0.000  0.033
    6  0.000  0.004  0.009  0.001  0.000  0.000  0.000  0.000  0.000  0.016
    7  0.001  0.008  0.018  0.006  0.000  0.000  0.000  0.000  0.000  0.034
    8  0.000  0.038  0.004  0.000  0.000  0.001  0.000  0.000  0.000  0.043
    9  0.001  0.007  0.024  0.003  0.000  0.000  0.000  0.000  0.000  0.037
   10  0.000  0.008  0.009  0.005  0.000  0.000  0.000  0.000  0.000  0.022
tot    0.004  0.095  0.065  0.015  0.303  0.322  0.000  0.003  0.002  0.811

band    18 # energy   -4.23860910 # occ.  1.00000000

ion      s     py     pz     px    dxy    dyz    dz2    dxz  x2-y2    tot
    1  0.003  0.000  0.000  0.000  0.000  0.000  0.174  0.000  0.000  0.177
    2  0.002  0.000  0.000  0.000  0.000  0.000  0.131  0.000  0.000  0.133
    3  0.000  0.000  0.120  0.000  0.000  0.000  0.000  0.000  0.000  0.120
    4  0.000  0.000  0.070  0.000  0.000  0.000  0.006  0.000  0.000  0.076
    5  0.000  0.000  0.017  0.010  0.000  0.000  0.000  0.000  0.000  0.028
    6  0.000  0.008  0.017  0.002  0.000  0.000  0.000  0.000  0.000  0.028
    7  0.000  0.007  0.017  0.003  0.000  0.000  0.000  0.000  0.000  0.028
    8  0.000  0.000  0.004  0.008  0.000  0.000  0.000  0.001  0.000  0.013
    9  0.000  0.006  0.004  0.002  0.000  0.001  0.000  0.000  0.000  0.013
   10  0.000  0.006  0.004  0.002  0.000  0.001  0.000  0.000  0.000  0.013
tot    0.007  0.026  0.252  0.026  0.001  0.002  0.311  0.002  0.001  0.630

band    19 # energy   -4.16876557 # occ.  1.00000000

ion      s     py     pz     px    dxy    dyz    dz2    dxz  x2-y2    tot
    1  0.000  0.000  0.000  0.000  0.057  0.050  0.000  0.025  0.035  0.168
    2  0.000  0.000  0.000  0.000  0.162  0.127  0.000  0.057  0.067  0.412
    3  0.000  0.000  0.000  0.000  0.000  0.000  0.000  0.000  0.000  0.000
    4  0.000  0.000  0.000  0.000  0.000  0.000  0.000  0.001  0.000  0.002
    5  0.002  0.000  0.028  0.001  0.000  0.000  0.000  0.000  0.000  0.031
    6  0.004  0.004  0.053  0.002  0.000  0.000  0.000  0.000  0.000  0.062
    7  0.000  0.001  0.004  0.003  0.000  0.000  0.000  0.000  0.000  0.008
    8  0.003  0.006  0.047  0.000  0.000  0.000  0.000  0.000  0.000  0.057
    9  0.002  0.000  0.035  0.000  0.000  0.000  0.000  0.000  0.000  0.038
   10  0.000  0.001  0.001  0.002  0.000  0.000  0.000  0.000  0.000  0.005
tot    0.012  0.012  0.167  0.009  0.219  0.178  0.000  0.083  0.103  0.783

band    20 # energy   -4.16875688 # occ.  1.00000000

ion      s     py     pz     px    dxy    dyz    dz2    dxz  x2-y2    tot
    1  0.000  0.000  0.000  0.000  0.035  0.025  0.000  0.050  0.057  0.168
    2  0.000  0.000  0.000  0.000  0.067  0.057  0.000  0.127  0.162  0.412
    3  0.000  0.000  0.000  0.000  0.000  0.000  0.000  0.000  0.000  0.000
    4  0.000  0.000  0.000  0.000  0.000  0.001  0.000  0.000  0.000  0.002
    5  0.002  0.005  0.028  0.001  0.000  0.000  0.000  0.000  0.000  0.037
    6  0.000  0.000  0.004  0.001  0.000  0.000  0.000  0.000  0.000  0.005
    7  0.004  0.000  0.052  0.003  0.000  0.000  0.000  0.000  0.000  0.059
    8  0.001  0.001  0.008  0.000  0.000  0.000  0.000  0.000  0.000  0.010
    9  0.001  0.001  0.020  0.006  0.000  0.000  0.000  0.000  0.000  0.028
   10  0.004  0.002  0.054  0.002  0.000  0.000  0.000  0.000  0.000  0.062
tot    0.012  0.009  0.167  0.012  0.103  0.083  0.000  0.178  0.219  0.783

band    21 # energy   -3.60436063 # occ.  1.00000000

ion      s     py     pz     px    dxy    dyz    dz2    dxz  x2-y2    tot
    1  0.000  0.003  0.000  0.002  0.004  0.002  0.000  0.187  0.112  0.309
    2  0.000  0.004  0.000  0.000  0.017  0.033  0.000  0.073  0.013  0.141
    3  0.000  0.004  0.000  0.037  0.000  0.000  0.000  0.000  0.000  0.041
    4  0.000  0.000  0.000  0.011  0.000  0.000  0.000  0.000  0.001  0.012
    5  0.002  0.000  0.045  0.013  0.000  0.000  0.000  0.000  0.000  0.060
    6  0.001  0.004  0.026  0.001  0.000  0.000  0.000  0.000  0.000  0.032
    7  0.000  0.001  0.003  0.001  0.000  0.000  0.000  0.000  0.001  0.005
    8  0.006  0.001  0.044  0.015  0.000  0.000  0.000  0.000  0.002  0.068
    9  0.004  0.002  0.024  0.011  0.000  0.000  0.000  0.000  0.001  0.043
   10  0.000  0.000  0.003  0.008  0.000  0.000  0.000  0.000  0.001  0.013
tot    0.013  0.019  0.145  0.099  0.022  0.035  0.000  0.261  0.130  0.725

band    22 # energy   -3.60434916 # occ.  1.00000000

ion      s     py     pz     px    dxy    dyz    dz2    dxz  x2-y2    tot
    1  0.000  0.002  0.000  0.003  0.112  0.187  0.000  0.002  0.004  0.309
    2  0.000  0.000  0.000  0.004  0.013  0.073  0.000  0.033  0.017  0.141
    3  0.000  0.037  0.000  0.004  0.000  0.000  0.000  0.000  0.000  0.041
    4  0.000  0.011  0.000  0.000  0.001  0.000  0.000  0.000  0.000  0.012
    5  0.000  0.000  0.004  0.000  0.001  0.000  0.000  0.000  0.000  0.005
    6  0.001  0.007  0.023  0.001  0.000  0.000  0.000  0.000  0.000  0.033
    7  0.002  0.008  0.046  0.003  0.000  0.000  0.000  0.000  0.000  0.060
    8  0.001  0.008  0.003  0.001  0.000  0.000  0.000  0.000  0.000  0.015
    9  0.003  0.012  0.023  0.000  0.001  0.000  0.000  0.000  0.000  0.039
   10  0.007  0.015  0.045  0.002  0.002  0.000  0.000  0.000  0.000  0.070
tot    0.013  0.099  0.145  0.019  0.130  0.261  0.000  0.035  0.022  0.725

band    23 # energy   -3.38600709 # occ.  1.00000000

ion      s     py     pz     px    dxy    dyz    dz2    dxz  x2-y2    tot
    1  0.003  0.000  0.000  0.000  0.000  0.000  0.557  0.000  0.000  0.560
    2  0.012  0.000  0.000  0.000  0.000  0.000  0.319  0.000  0.000  0.331
    3  0.000  0.000  0.004  0.000  0.000  0.000  0.000  0.000  0.000  0.004
    4  0.000  0.000  0.001  0.000  0.000  0.000  0.000  0.000  0.000  0.001
    5  0.000  0.001  0.003  0.000  0.000  0.000  0.000  0.000  0.000  0.004
    6  0.000  0.000  0.003  0.001  0.000  0.000  0.000  0.000  0.000  0.004
    7  0.000  0.000  0.003  0.000  0.000  0.000  0.000  0.000  0.000  0.004
    8  0.000  0.000  0.000  0.000  0.000  0.000  0.000  0.000  0.000  0.001
    9  0.000  0.000  0.000  0.000  0.000  0.000  0.000  0.000  0.000  0.001
   10  0.000  0.000  0.000  0.000  0.000  0.000  0.000  0.000  0.000  0.001
tot    0.016  0.002  0.014  0.002  0.000  0.001  0.876  0.001  0.000  0.913

band    24 # energy   -3.34930930 # occ.  1.00000000

ion      s     py     pz     px    dxy    dyz    dz2    dxz  x2-y2    tot
    1  0.000  0.001  0.000  0.005  0.228  0.108  0.000  0.092  0.127  0.562
    2  0.000  0.003  0.000  0.006  0.002  0.014  0.000  0.008  0.014  0.046
    3  0.000  0.001  0.000  0.002  0.000  0.000  0.000  0.000  0.000  0.003
    4  0.000  0.005  0.000  0.004  0.001  0.000  0.000  0.000  0.000  0.010
    5  0.000  0.001  0.002  0.000  0.000  0.000  0.000  0.000  0.000  0.004
    6  0.001  0.002  0.040  0.001  0.000  0.000  0.000  0.000  0.000  0.045
    7  0.002  0.008  0.025  0.000  0.000  0.000  0.000  0.000  0.000  0.035
    8  0.002  0.004  0.015  0.001  0.000  0.000  0.000  0.000  0.000  0.022
    9  0.002  0.003  0.040  0.001  0.000  0.000  0.000  0.000  0.000  0.046
   10  0.000  0.004  0.006  0.001  0.000  0.000  0.000  0.000  0.000  0.012
tot    0.008  0.032  0.127  0.022  0.232  0.123  0.000  0.100  0.142  0.786

band    25 # energy   -3.34930335 # occ.  1.00000000

ion      s     py     pz     px    dxy    dyz    dz2    dxz  x2-y2    tot
    1  0.000  0.005  0.000  0.001  0.127  0.092  0.000  0.108  0.228  0.562
    2  0.000  0.006  0.000  0.003  0.014  0.008  0.000  0.014  0.002  0.046
    3  0.000  0.002  0.000  0.001  0.000  0.000  0.000  0.000  0.000  0.003
    4  0.000  0.004  0.000  0.005  0.000  0.000  0.000  0.000  0.001  0.010
    5  0.002  0.001  0.042  0.006  0.000  0.000  0.000  0.000  0.000  0.052
    6  0.001  0.001  0.004  0.005  0.000  0.000  0.000  0.000  0.000  0.012
    7  0.000  0.000  0.020  0.001  0.000  0.000  0.000  0.000  0.000  0.021
    8  0.001  0.001  0.026  0.003  0.000  0.000  0.000  0.000  0.000  0.031
    9  0.001  0.001  0.001  0.005  0.000  0.000  0.000  0.000  0.000  0.007
   10  0.002  0.001  0.034  0.004  0.000  0.000  0.000  0.000  0.000  0.041
tot    0.008  0.022  0.127  0.032  0.142  0.100  0.000  0.123  0.232  0.786

band    26 # energy   -3.24758793 # occ.  1.00000000

ion      s     py     pz     px    dxy    dyz    dz2    dxz  x2-y2    tot
    1  0.000  0.001  0.000  0.004  0.011  0.011  0.000  0.001  0.000  0.027
    2  0.000  0.001  0.000  0.002  0.421  0.284  0.000  0.000  0.008  0.716
    3  0.000  0.000  0.000  0.002  0.000  0.000  0.000  0.000  0.000  0.002
    4  0.000  0.000  0.000  0.013  0.000  0.000  0.000  0.000  0.000  0.014
    5  0.003  0.001  0.020  0.007  0.000  0.000  0.000  0.000  0.000  0.031
    6  0.002  0.003  0.027  0.000  0.000  0.000  0.000  0.000  0.000  0.032
    7  0.000  0.000  0.000  0.001  0.000  0.000  0.000  0.000  0.000  0.003
    8  0.000  0.001  0.001  0.000  0.000  0.000  0.000  0.000  0.000  0.004
    9  0.000  0.001  0.013  0.000  0.000  0.000  0.000  0.000  0.000  0.015
   10  0.001  0.001  0.006  0.001  0.000  0.000  0.000  0.000  0.000  0.009
tot    0.006  0.009  0.068  0.031  0.433  0.295  0.001  0.001  0.009  0.853

band    27 # energy   -3.24758139 # occ.  1.00000000

ion      s     py     pz     px    dxy    dyz    dz2    dxz  x2-y2    tot
    1  0.000  0.004  0.000  0.001  0.000  0.001  0.000  0.011  0.011  0.027
    2  0.000  0.002  0.000  0.001  0.008  0.000  0.000  0.284  0.421  0.716
    3  0.000  0.002  0.000  0.000  0.000  0.000  0.000  0.000  0.000  0.002
    4  0.000  0.013  0.000  0.000  0.000  0.000  0.000  0.000  0.000  0.014
    5  0.000  0.000  0.011  0.000  0.000  0.000  0.000  0.000  0.000  0.012
    6  0.001  0.005  0.005  0.000  0.000  0.000  0.000  0.000  0.000  0.012
    7  0.003  0.003  0.031  0.004  0.000  0.000  0.000  0.000  0.000  0.041
    8  0.000  0.001  0.013  0.001  0.000  0.000  0.000  0.000  0.000  0.015
    9  0.001  0.001  0.001  0.001  0.000  0.000  0.000  0.000  0.000  0.004
   10  0.000  0.000  0.008  0.001  0.000  0.000  0.000  0.000  0.000  0.009
tot    0.006  0.031  0.068  0.009  0.009  0.001  0.001  0.295  0.433  0.853

band    28 # energy   -3.23534118 # occ.  1.00000000

ion      s     py     pz     px    dxy    dyz    dz2    dxz  x2-y2    tot
    1  0.007  0.000  0.007  0.000  0.000  0.000  0.027  0.000  0.000  0.041
    2  0.002  0.000  0.007  0.000  0.000  0.000  0.194  0.000  0.000  0.204
    3  0.000  0.000  0.022  0.000  0.000  0.000  0.000  0.000  0.000  0.022
    4  0.006  0.000  0.001  0.000  0.000  0.000  0.002  0.000  0.000  0.010
    5  0.000  0.000  0.066  0.000  0.000  0.000  0.000  0.000  0.000  0.066
    6  0.000  0.000  0.066  0.000  0.000  0.000  0.000  0.000  0.000  0.066
    7  0.000  0.000  0.066  0.000  0.000  0.000  0.000  0.000  0.000  0.066
    8  0.003  0.000  0.029  0.000  0.000  0.000  0.000  0.000  0.000  0.033
    9  0.003  0.000  0.029  0.000  0.000  0.000  0.000  0.000  0.000  0.033
   10  0.003  0.000  0.029  0.000  0.000  0.000  0.000  0.000  0.000  0.033
tot    0.025  0.001  0.321  0.001  0.000  0.000  0.225  0.000  0.000  0.574

band    29 # energy   -2.96261669 # occ.  1.00000000

ion      s     py     pz     px    dxy    dyz    dz2    dxz  x2-y2    tot
    1  0.015  0.000  0.004  0.000  0.000  0.000  0.130  0.000  0.000  0.148
    2  0.011  0.000  0.004  0.000  0.000  0.000  0.241  0.000  0.000  0.256
    3  0.003  0.000  0.031  0.000  0.000  0.000  0.000  0.000  0.000  0.034
    4  0.000  0.000  0.055  0.000  0.000  0.000  0.000  0.000  0.000  0.056
    5  0.003  0.000  0.002  0.003  0.000  0.000  0.000  0.000  0.000  0.008
    6  0.003  0.002  0.002  0.001  0.000  0.000  0.000  0.000  0.000  0.008
    7  0.003  0.002  0.002  0.001  0.000  0.000  0.000  0.000  0.000  0.008
    8  0.001  0.000  0.053  0.000  0.000  0.000  0.001  0.000  0.000  0.055
    9  0.001  0.000  0.053  0.000  0.000  0.000  0.001  0.000  0.000  0.055
   10  0.001  0.000  0.053  0.000  0.000  0.000  0.001  0.000  0.000  0.055
tot    0.041  0.004  0.258  0.004  0.000  0.001  0.374  0.001  0.000  0.682

band    30 # energy   -2.29925299 # occ.  1.00000000

ion      s     py     pz     px    dxy    dyz    dz2    dxz  x2-y2    tot
    1  0.000  0.002  0.000  0.028  0.010  0.001  0.000  0.007  0.002  0.049
    2  0.000  0.003  0.000  0.027  0.012  0.004  0.000  0.003  0.000  0.050
    3  0.000  0.002  0.000  0.023  0.000  0.000  0.000  0.000  0.000  0.025
    4  0.000  0.002  0.000  0.024  0.000  0.000  0.000  0.000  0.003  0.030
    5  0.002  0.007  0.009  0.042  0.000  0.000  0.000  0.000  0.002  0.063
    6  0.000  0.010  0.000  0.073  0.000  0.000  0.000  0.001  0.000  0.085
    7  0.001  0.001  0.006  0.063  0.001  0.000  0.000  0.000  0.001  0.074
    8  0.003  0.007  0.028  0.016  0.000  0.000  0.000  0.000  0.002  0.057
    9  0.000  0.017  0.001  0.085  0.000  0.000  0.000  0.000  0.000  0.104
   10  0.002  0.001  0.016  0.062  0.001  0.000  0.000  0.000  0.000  0.083
tot    0.009  0.053  0.061  0.443  0.024  0.006  0.001  0.012  0.011  0.620

band    31 # energy   -2.29921631 # occ.  1.00000000

ion      s     py     pz     px    dxy    dyz    dz2    dxz  x2-y2    tot
    1  0.000  0.028  0.000  0.002  0.002  0.007  0.000  0.001  0.010  0.049
    2  0.000  0.027  0.000  0.003  0.000  0.003  0.000  0.004  0.012  0.050
    3  0.000  0.023  0.000  0.002  0.000  0.000  0.000  0.000  0.000  0.025
    4  0.000  0.024  0.000  0.002  0.003  0.000  0.000  0.000  0.000  0.030
    5  0.000  0.078  0.001  0.004  0.000  0.001  0.000  0.000  0.000  0.085
    6  0.002  0.046  0.010  0.002  0.002  0.000  0.000  0.000  0.000  0.063
    7  0.001  0.054  0.004  0.013  0.001  0.000  0.000  0.001  0.000  0.074
    8  0.000  0.101  0.003  0.001  0.000  0.000  0.000  0.000  0.000  0.106
    9  0.003  0.023  0.029  0.000  0.002  0.000  0.000  0.000  0.001  0.059