<?xml version="1.0" encoding="ISO-8859-1"?>
<modeling>
 <generator>
  <i name="program" type="string">vasp </i>
  <i name="version" type="string">5.4.4.18Apr17-6-g9f103f2a35  </i>
  <i name="subversion" type="string">(build May  1 2020 15:48:39) complex            parallel </i>
  <i name="platform" type="string">LinuxGNU </i>
  <i name="date" type="string">2020 06 19 </i>
  <i name="time" type="string">21:47:25 </i>
 </generator>
 <incar>
  <i type="int" name="ISTART">     1</i>
  <i type="string" name="PREC">accurate</i>
  <i type="string" name="ALGO"> Normal</i>
  <i type="int" name="ISPIN">     2</i>
  <i name="AMIN">      0.01000000</i>
  <i type="int" name="NELM">   400</i>
  <i type="int" name="IBRION">     2</i>
  <i name="EDIFF">      0.00010000</i>
  <i type="int" name="NSW">    99</i>
  <i type="int" name="ISIF">     3</i>
  <i name="ENCUT">    520.00000000</i>
  <v name="MAGMOM">      1.26000000      1.26000000      0.60000000      0.60000000      0.60000000      0.60000000      0.60000000      0.60000000      0.60000000      0.60000000</v>
  <i type="string" name="LREAL"> Auto</i>
  <i type="int" name="ISMEAR">    -5</i>
  <i name="SIGMA">      0.05000000</i>
  <i type="logical" name="LWAVE"> F  </i>
  <i type="int" name="LORBIT">    11</i>
  <v type="int" name="KPOINT_BSE">    -1     0     0     0</v>
  <i type="int" name="NELM">   400</i>
  <i type="string" name="GGA"> Bo</i>
  <i name="PARAM1">      0.18333333</i>
  <i name="PARAM2">      0.22000000</i>
  <i type="logical" name="LUSE_VDW"> T  </i>
  <i name="AGGAC">      0.00000000</i>
 </incar>
 <structure name="primitive_cell" >
  <crystal>
   <varray name="basis" >
    <v>       6.90777700      -0.00000000       0.00000000 </v>
    <v>       3.45388800       5.98231000       0.00000000 </v>
    <v>       0.00000000       0.00000000      23.44458800 </v>
   </varray>
   <i name="volume">    968.83501932 </i>
   <varray name="rec_basis" >
    <v>       0.14476437      -0.08357974       0.00000000 </v>
    <v>       0.00000000       0.16715951      -0.00000000 </v>
    <v>      -0.00000000       0.00000000       0.04265377 </v>
   </varray>
  </crystal>
  <varray name="positions" >
   <v>       0.33333300       0.33333300       0.49992500 </v>
   <v>       0.00042000       0.37322400      -0.42624800 </v>
   <v>      -0.37364300       0.00042000      -0.42624800 </v>
   <v>       0.37322400      -0.37364300      -0.42624800 </v>
   <v>       0.37364300      -0.00042000       0.42624800 </v>
   <v>      -0.37322400       0.37364300       0.42624800 </v>
   <v>      -0.00042000      -0.37322400       0.42624800 </v>
   <v>      -0.33333300      -0.33333300      -0.49992500 </v>
   <v>       0.00000000       0.00000000       0.44821600 </v>
   <v>       0.00000000       0.00000000      -0.44821600 </v>
  </varray>
 </structure>
 <varray name="primitive_index" >
  <v type="int" >        1 </v>
  <v type="int" >        6 </v>
  <v type="int" >        5 </v>
  <v type="int" >        7 </v>
  <v type="int" >        8 </v>
  <v type="int" >       10 </v>
  <v type="int" >        9 </v>
  <v type="int" >        2 </v>
  <v type="int" >        3 </v>
  <v type="int" >        4 </v>
 </varray>
 <kpoints>
  <generation param="Gamma">
   <v type="int" name="divisions">       5        5        1 </v>
   <v name="usershift">      0.00000000       0.00000000       0.00000000 </v>
   <v name="genvec1">      0.20000000       0.00000000       0.00000000 </v>
   <v name="genvec2">      0.00000000       0.20000000       0.00000000 </v>
   <v name="genvec3">      0.00000000       0.00000000       1.00000000 </v>
   <v name="shift">      0.00000000       0.00000000       0.00000000 </v>
  </generation>
  <varray name="kpointlist" >
   <v>       0.00000000       0.00000000       0.00000000 </v>
   <v>       0.20000000       0.00000000       0.00000000 </v>
   <v>       0.40000000       0.00000000       0.00000000 </v>
   <v>       0.40000000       0.20000000       0.00000000 </v>
   <v>      -0.40000000       0.20000000       0.00000000 </v>
  </varray>
  <varray name="weights" >
   <v>       0.04000000 </v>
   <v>       0.24000000 </v>
   <v>       0.24000000 </v>
   <v>       0.24000000 </v>
   <v>       0.24000000 </v>
  </varray>
  <varray name="tetrahedronlist"  type="int" >
   <v type="int" >        6        1        1        2        2 </v>
   <v type="int" >       12        1        2        2        2 </v>
   <v type="int" >       12        2        2        3        4 </v>
   <v type="int" >       12        2        2        2        4 </v>
   <v type="int" >       12        2        3        3        4 </v>
   <v type="int" >       12        2        3        4        4 </v>
   <v type="int" >        6        2        2        4        4 </v>
   <v type="int" >       12        3        3        3        5 </v>
   <v type="int" >       12        3        3        4        5 </v>
   <v type="int" >       12        3        4        4        5 </v>
   <v type="int" >        6        3        3        5        5 </v>
   <v type="int" >       12        3        4        5        5 </v>
   <v type="int" >        6        4        4        5        5 </v>
   <v type="int" >       12        4        5        5        5 </v>
   <v type="int" >        6        5        5        5        5 </v>
  </varray>
  <i name="volumeweight">      0.00666667 </i>
 </kpoints>
 <parameters>
  <separator name="general" >
   <i type="string" name="SYSTEM">unknown system</i>
   <i type="logical" name="LCOMPAT"> F  </i>
  </separator>
  <separator name="electronic" >
   <i type="string" name="PREC">accura</i>
   <i name="ENMAX">    520.00000000</i>
   <i name="ENAUG">    544.56500000</i>
   <i name="EDIFF">      0.00010000</i>
   <i type="int" name="IALGO">    38</i>
   <i type="int" name="IWAVPR">    11</i>
   <i type="int" name="NBANDS">    48</i>
   <i name="NELECT">     65.00000000</i>
   <i type="int" name="TURBO">     0</i>
   <i type="int" name="IRESTART">     0</i>
   <i type="int" name="NREBOOT">     0</i>
   <i type="int" name="NMIN">     0</i>
   <i name="EREF">      0.00000000</i>
   <separator name="electronic smearing" >
    <i type="int" name="ISMEAR">    -5</i>
    <i name="SIGMA">      0.05000000</i>
    <i name="KSPACING">      0.50000000</i>
    <i type="logical" name="KGAMMA"> T  </i>
   </separator>
   <separator name="electronic projectors" >
    <i type="logical" name="LREAL"> T  </i>
    <v name="ROPT">     -0.00025000     -0.00025000     -0.00025000     -0.00025000</v>
    <i type="int" name="LMAXPAW">  -100</i>
    <i type="int" name="LMAXMIX">     2</i>
    <i type="logical" name="NLSPLINE"> F  </i>
   </separator>
   <separator name="electronic startup" >
    <i type="int" name="ISTART">     0</i>
    <i type="int" name="ICHARG">     2</i>
    <i type="int" name="INIWAV">     1</i>
   </separator>
   <separator name="electronic spin" >
    <i type="int" name="ISPIN">     2</i>
    <i type="logical" name="LNONCOLLINEAR"> F  </i>
    <v name="MAGMOM">      1.26000000      1.26000000      0.60000000      0.60000000      0.60000000      0.60000000      0.60000000      0.60000000      0.60000000      0.60000000</v>
    <i name="NUPDOWN">     -1.00000000</i>
    <i type="logical" name="LSORBIT"> F  </i>
    <v name="SAXIS">      0.00000000      0.00000000      1.00000000</v>
    <i type="logical" name="LSPIRAL"> F  </i>
    <v name="QSPIRAL">      0.00000000      0.00000000      0.00000000</v>
    <i type="logical" name="LZEROZ"> F  </i>
   </separator>
   <separator name="electronic exchange-correlation" >
    <i type="logical" name="LASPH"> F  </i>
    <i type="logical" name="LMETAGGA"> F  </i>
   </separator>
   <separator name="electronic convergence" >
    <i type="int" name="NELM">   400</i>
    <i type="int" name="NELMDL">     0</i>
    <i type="int" name="NELMIN">     2</i>
    <i name="ENINI">    520.00000000</i>
    <separator name="electronic convergence detail" >
     <i type="logical" name="LDIAG"> T  </i>
     <i type="logical" name="LSUBROT"> F  </i>
     <i name="WEIMIN">      0.00100000</i>
     <i name="EBREAK">      0.00000052</i>
     <i name="DEPER">      0.30000000</i>
     <i type="int" name="NRMM">     4</i>
     <i name="TIME">      0.40000000</i>
    </separator>
   </separator>
   <separator name="electronic mixer" >
    <i name="AMIX">      0.40000000</i>
    <i name="BMIX">      1.00000000</i>
    <i name="AMIN">      0.01000000</i>
    <i name="AMIX_MAG">      1.60000000</i>
    <i name="BMIX_MAG">      1.00000000</i>
    <separator name="electronic mixer details" >
     <i type="int" name="IMIX">     4</i>
     <i type="logical" name="MIXFIRST"> F  </i>
     <i type="int" name="MAXMIX">   -45</i>
     <i name="WC">    100.00000000</i>
     <i type="int" name="INIMIX">     1</i>
     <i type="int" name="MIXPRE">     1</i>
     <i type="int" name="MREMOVE">     5</i>
    </separator>
   </separator>
   <separator name="electronic dipolcorrection" >
    <i type="logical" name="LDIPOL"> F  </i>
    <i type="logical" name="LMONO"> F  </i>
    <i type="int" name="IDIPOL">     0</i>
    <i name="EPSILON">      1.00000000</i>
    <v name="DIPOL">   -100.00000000   -100.00000000   -100.00000000</v>
    <i name="EFIELD">      0.00000000</i>
   </separator>
  </separator>
  <separator name="grids" >
   <i type="int" name="NGX">    54</i>
   <i type="int" name="NGY">    54</i>
   <i type="int" name="NGZ">   180</i>
   <i type="int" name="NGXF">   108</i>
   <i type="int" name="NGYF">   108</i>
   <i type="int" name="NGZF">   360</i>
   <i type="logical" name="ADDGRID"> F  </i>
  </separator>
  <separator name="ionic" >
   <i type="int" name="NSW">    99</i>
   <i type="int" name="IBRION">     2</i>
   <i type="int" name="MDALGO">     0</i>
   <i type="int" name="ISIF">     3</i>
   <i name="PSTRESS">      0.00000000</i>
   <i name="EDIFFG">      0.00100000</i>
   <i type="int" name="NFREE">     1</i>
   <i name="POTIM">      0.50000000</i>
   <i name="SMASS">     -3.00000000</i>
   <i name="SCALEE">      1.00000000</i>
  </separator>
  <separator name="ionic md" >
   <i name="TEBEG">      0.00010000</i>
   <i name="TEEND">      0.00010000</i>
   <i type="int" name="NBLOCK">     1</i>
   <i type="int" name="KBLOCK">    99</i>
   <i type="int" name="NPACO">   256</i>
   <i name="APACO">     16.00000000</i>
  </separator>
  <separator name="symmetry" >
   <i type="int" name="ISYM">     2</i>
   <i name="SYMPREC">      0.00001000</i>
  </separator>
  <separator name="dos" >
   <i type="int" name="LORBIT">    11</i>
   <v name="RWIGS">     -1.00000000     -1.00000000     -1.00000000     -1.00000000</v>
   <i type="int" name="NEDOS">   301</i>
   <i name="EMIN">     10.00000000</i>
   <i name="EMAX">    -10.00000000</i>
   <i name="EFERMI">      0.00000000</i>
  </separator>
  <separator name="writing" >
   <i type="int" name="NWRITE">     2</i>
   <i type="logical" name="LWAVE"> F  </i>
   <i type="logical" name="LDOWNSAMPLE"> F  </i>
   <i type="logical" name="LCHARG"> T  </i>
   <i type="logical" name="LPARD"> F  </i>
   <i type="logical" name="LVTOT"> F  </i>
   <i type="logical" name="LVHAR"> F  </i>
   <i type="logical" name="LELF"> F  </i>
   <i type="logical" name="LOPTICS"> F  </i>
   <v name="STM">      0.00000000      0.00000000      0.00000000      0.00000000      0.00000000      0.00000000      0.00000000</v>
  </separator>
  <separator name="performance" >
   <i type="int" name="NPAR">    16</i>
   <i type="int" name="NSIM">     4</i>
   <i type="int" name="NBLK">    -1</i>
   <i type="logical" name="LPLANE"> T  </i>
   <i type="logical" name="LSCALAPACK"> T  </i>
   <i type="logical" name="LSCAAWARE"> F  </i>
   <i type="logical" name="LSCALU"> F  </i>
   <i type="logical" name="LASYNC"> F  </i>
   <i type="logical" name="LORBITALREAL"> F  </i>
  </separator>
  <separator name="miscellaneous" >
   <i type="int" name="IDIOT">     3</i>
   <i type="int" name="ISPECIAL">     0</i>
   <i type="logical" name="LMUSIC"> F  </i>
   <v name="POMASS">     58.69000000     30.97400000     72.61000000    127.60000000</v>
   <v name="DARWINR">      0.00000000      0.00000000      0.00000000      0.00000000</v>
   <v name="DARWINV">      1.00000000      1.00000000      1.00000000      1.00000000</v>
   <i type="logical" name="LCORR"> T  </i>
  </separator>
  <i type="logical" name="GGA_COMPAT"> T  </i>
  <i type="logical" name="LBERRY"> F  </i>
  <i type="int" name="ICORELEVEL">     0</i>
  <i type="logical" name="LDAU"> F  </i>
  <i type="int" name="I_CONSTRAINED_M">     0</i>
  <separator name="electronic exchange-correlation" >
   <i type="string" name="GGA">BO</i>
   <i type="int" name="VOSKOWN">     0</i>
   <i type="logical" name="LHFCALC"> F  </i>
   <i type="string" name="PRECFOCK"></i>
   <i type="logical" name="LSYMGRAD"> F  </i>
   <i type="logical" name="LHFONE"> F  </i>
   <i type="logical" name="LRHFCALC"> F  </i>
   <i type="logical" name="LTHOMAS"> F  </i>
   <i type="logical" name="LMODELHF"> F  </i>
   <i name="ENCUT4O">     -1.00000000</i>
   <i type="int" name="EXXOEP">     0</i>
   <i type="int" name="FOURORBIT">     0</i>
   <i name="AEXX">      0.00000000</i>
   <i name="HFALPHA">      0.00000000</i>
   <i name="MCALPHA">      0.00000000</i>
   <i name="ALDAX">      1.00000000</i>
   <i name="AGGAX">      1.00000000</i>
   <i name="ALDAC">      1.00000000</i>
   <i name="AGGAC">      0.00000000</i>
   <i type="int" name="NKREDX">     1</i>
   <i type="int" name="NKREDY">     1</i>
   <i type="int" name="NKREDZ">     1</i>
   <i type="logical" name="SHIFTRED"> F  </i>
   <i type="logical" name="ODDONLY"> F  </i>
   <i type="logical" name="EVENONLY"> F  </i>
   <i type="int" name="LMAXFOCK">     0</i>
   <i type="int" name="NMAXFOCKAE">     0</i>
   <i type="logical" name="LFOCKAEDFT"> F  </i>
   <i name="HFSCREEN">      0.00000000</i>
   <i name="HFSCREENC">      0.00000000</i>
   <i type="int" name="NBANDSGWLOW">     0</i>
  </separator>
  <separator name="vdW DFT" >
   <i type="logical" name="LUSE_VDW"> T  </i>
   <i name="Zab_VDW">     -0.84910000</i>
   <i name="PARAM1">      0.18333333</i>
   <i name="PARAM2">      0.22000000</i>
   <i name="PARAM3">      0.00000000</i>
  </separator>
  <separator name="model GW" >
   <i type="int" name="MODEL_GW">     0</i>
   <i name="MODEL_EPS0">     58.13010116</i>
   <i name="MODEL_ALPHA">      1.00000000</i>
  </separator>
  <separator name="linear response parameters" >
   <i type="logical" name="LEPSILON"> F  </i>
   <i type="logical" name="LRPA"> F  </i>
   <i type="logical" name="LNABLA"> F  </i>
   <i type="logical" name="LVEL"> F  </i>
   <i type="int" name="KINTER">     0</i>
   <i name="CSHIFT">      0.10000000</i>
   <i name="OMEGAMAX">     -1.00000000</i>
   <i name="DEG_THRESHOLD">      0.00200000</i>
   <i name="RTIME">     -0.10000000</i>
   <i name="WPLASMAI">      0.00000000</i>
   <v name="DFIELD">      0.00000000      0.00000000      0.00000000</v>
   <v name="WPLASMA">      0.00000000      0.00000000      0.00000000      0.00000000      0.00000000      0.00000000      0.00000000      0.00000000      0.00000000</v>
  </separator>
  <separator name="orbital magnetization" >
   <i type="logical" name="NUCIND"> F  </i>
   <v name="MAGPOS">      0.00000000      0.00000000      0.00000000</v>
   <i type="logical" name="LNICSALL"> T  </i>
   <i type="logical" name="ORBITALMAG"> F  </i>
   <i type="logical" name="LMAGBLOCH"> F  </i>
   <i type="logical" name="LCHIMAG"> F  </i>
   <i type="logical" name="LGAUGE"> T  </i>
   <i type="int" name="MAGATOM">     0</i>
   <v name="MAGDIPOL">      0.00000000      0.00000000      0.00000000</v>
   <v name="AVECCONST">      0.00000000      0.00000000      0.00000000</v>
  </separator>
  <separator name="response functions" >
   <i type="logical" name="LADDER"> F  </i>
   <i type="logical" name="LRPAFORCE"> F  </i>
   <i type="logical" name="LFXC"> F  </i>
   <i type="logical" name="LHARTREE"> T  </i>
   <i type="int" name="IBSE">     0</i>
   <v type="int" name="KPOINT">    -1     0     0     0</v>
   <i type="logical" name="LTCTE"> F  </i>
   <i type="logical" name="LTETE"> F  </i>
   <i type="logical" name="LTRIPLET"> F  </i>
   <i type="logical" name="LFXCEPS"> F  </i>
   <i type="logical" name="LFXHEG"> F  </i>
   <i type="int" name="NATURALO">     2</i>
   <i type="logical" name="L2ORDER"> F  </i>
   <i type="logical" name="LMP2LT"> F  </i>
   <i type="logical" name="LUSEW"> F  </i>
   <i name="ENCUTGW">     -2.00000000</i>
   <i name="ENCUTGWSOFT">     -2.00000000</i>
   <i name="ENCUTLF">     -1.00000000</i>
   <i type="int" name="LMAXMP2">    -1</i>
   <i name="SCISSOR">      0.00000000</i>
   <i type="int" name="NOMEGA">     0</i>
   <i type="int" name="NOMEGAR">     0</i>
   <i type="int" name="NBANDSGW">    -1</i>
   <i type="int" name="NBANDSO">    -1</i>
   <i type="int" name="NBANDSV">    -1</i>
   <i type="int" name="NELM">   400</i>
   <i type="int" name="NELMHF">     1</i>
   <i type="int" name="DIM">     3</i>
   <i type="int" name="ANTIRES">     0</i>
   <i name="OMEGAMAX">    -30.00000000</i>
   <i name="OMEGAMIN">    -30.00000000</i>
   <i name="OMEGATL">   -200.00000000</i>
   <i type="int" name="OMEGAGRID">   140</i>
   <i name="CSHIFT">     -0.10000000</i>
   <i type="logical" name="SELFENERGY"> F  </i>
   <i type="logical" name="LSPECTRAL"> F  </i>
   <i type="logical" name="LSPECTRALGW"> F  </i>
   <i type="logical" name="LSINGLES"> F  </i>
   <i type="logical" name="LFERMIGW"> F  </i>
   <i type="logical" name="ODDONLYGW"> F  </i>
   <i type="logical" name="EVENONLYGW"> F  </i>
   <i type="int" name="NKREDLFX">     1</i>
   <i type="int" name="NKREDLFY">     1</i>
   <i type="int" name="NKREDLFZ">     1</i>
   <i type="int" name="MAXMEM">  2800</i>
   <i type="int" name="TELESCOPE">     0</i>
   <i type="int" name="TAUPAR">     1</i>
   <i type="int" name="OMEGAPAR">    -1</i>
   <i name="LAMBDA">      1.00000000</i>
  </separator>
  <separator name="External order field" >
   <i name="OFIELD_KAPPA">      0.00000000</i>
   <v name="OFIELD_K">      0.00000000      0.00000000      0.00000000</v>
   <i name="OFIELD_Q6_NEAR">      0.00000000</i>
   <i name="OFIELD_Q6_FAR">      0.00000000</i>
   <i name="OFIELD_A">      0.00000000</i>
  </separator>
 </parameters>
 <atominfo>
  <atoms>      10 </atoms>
  <types>       4 </types>
  <array name="atoms" >
   <dimension dim="1">ion</dimension>
   <field type="string">element</field>
   <field type="int">atomtype</field>
   <set>
    <rc><c>Ni</c><c>   1</c></rc>
    <rc><c>Ni</c><c>   1</c></rc>
    <rc><c>P </c><c>   2</c></rc>
    <rc><c>Ge</c><c>   3</c></rc>
    <rc><c>Te</c><c>   4</c></rc>
    <rc><c>Te</c><c>   4</c></rc>
    <rc><c>Te</c><c>   4</c></rc>
    <rc><c>Te</c><c>   4</c></rc>
    <rc><c>Te</c><c>   4</c></rc>
    <rc><c>Te</c><c>   4</c></rc>
   </set>
  </array>
  <array name="atomtypes" >
   <dimension dim="1">type</dimension>
   <field type="int">atomspertype</field>
   <field type="string">element</field>
   <field>mass</field>
   <field>valence</field>
   <field type="string">pseudopotential</field>
   <set>
    <rc><c>   2</c><c>Ni</c><c>     58.69000000</c><c>     10.00000000</c><c> PAW_PBE Ni 06Sep2000                   </c></rc>
    <rc><c>   1</c><c>P </c><c>     30.97400000</c><c>      5.00000000</c><c>  PAW_PBE P 17Jan2003                   </c></rc>
    <rc><c>   1</c><c>Ge</c><c>     72.61000000</c><c>      4.00000000</c><c> PAW_PBE Ge 05Jan2001                   </c></rc>
    <rc><c>   6</c><c>Te</c><c>    127.60000000</c><c>      6.00000000</c><c> PAW_PBE Te 08Apr2002                   </c></rc>
   </set>
  </array>
 </atominfo>
 <structure name="initialpos" >
  <crystal>
   <varray name="basis" >
    <v>       6.90777700      -0.00000000       0.00000000 </v>
    <v>       3.45388800       5.98231000       0.00000000 </v>
    <v>       0.00000000       0.00000000      23.44458800 </v>
   </varray>
   <i name="volume">    968.83501932 </i>
   <varray name="rec_basis" >
    <v>       0.14476437      -0.08357974       0.00000000 </v>
    <v>       0.00000000       0.16715951      -0.00000000 </v>
    <v>      -0.00000000       0.00000000       0.04265377 </v>
   </varray>
  </crystal>
  <varray name="positions" >
   <v>       0.33333300       0.33333300       0.49992500 </v>
   <v>       0.66666700       0.66666700       0.50007500 </v>
   <v>       0.00000000       0.00000000       0.44821600 </v>
   <v>       0.00000000       0.00000000       0.55178400 </v>
   <v>       0.62635700       0.00042000       0.57375200 </v>
   <v>       0.00042000       0.37322400       0.57375200 </v>
   <v>       0.37322400       0.62635700       0.57375200 </v>
   <v>       0.37364300       0.99958000       0.42624800 </v>
   <v>       0.99958000       0.62677600       0.42624800 </v>
   <v>       0.62677600       0.37364300       0.42624800 </v>
  </varray>
  <varray name="selective"  type="logical" >
   <v type="logical" >  T  T  T </v>
   <v type="logical" >  T  T  T </v>
   <v type="logical" >  T  T  T </v>
   <v type="logical" >  F  F  F </v>
   <v type="logical" >  F  F  F </v>
   <v type="logical" >  F  F  F </v>
   <v type="logical" >  F  F  F </v>
   <v type="logical" >  F  F  F </v>
   <v type="logical" >  F  F  F </v>
   <v type="logical" >  F  F  F </v>
  </varray>
  <nose>
   <v>      -3.00000000       0.00000000       0.00010000       0.00010000 </v>
  </nose>
 </structure>
 <calculation>
  <scstep>
   <time name="dav">   22.98   23.09</time>
   <time name="total">   76.05   76.38</time>
   <energy>
    <i name="alphaZ">     19.82141849 </i>
    <i name="ewald">   8338.88239735 </i>
    <i name="hartreedc"> -11773.86302338 </i>
    <i name="XCdc">   -118.84770884 </i>
    <i name="pawpsdc">   2458.64793336 </i>
    <i name="pawaedc">  -2327.33533323 </i>
    <i name="eentropy">      0.00000000 </i>
    <i name="bandstr">     10.66142052 </i>
    <i name="atom">   3793.03632354 </i>
    <i name="e_fr_energy">    401.00342780 </i>
    <i name="e_wo_entrp">    401.00342780 </i>
    <i name="e_0_energy">    401.00342780 </i>
   </energy>
  </scstep>
  <scstep>
   <time name="dav">   32.79   32.92</time>
   <time name="total">   32.80   32.93</time>
   <energy>
    <i name="e_fr_energy">     11.74237403 </i>
    <i name="e_wo_entrp">     11.74237403 </i>
    <i name="e_0_energy">     11.74237403 </i>
   </energy>
  </scstep>
  <scstep>
   <time name="dav">   29.67   29.76</time>
   <time name="total">   29.67   29.76</time>
   <energy>
    <i name="e_fr_energy">    -31.84576407 </i>
    <i name="e_wo_entrp">    -31.84576407 </i>
    <i name="e_0_energy">    -31.84576407 </i>
   </energy>
  </scstep>
  <scstep>
   <time name="dav">   29.11   29.20</time>
   <time name="total">   29.12   29.21</time>
   <energy>
    <i name="e_fr_energy">    -33.50297737 </i>
    <i name="e_wo_entrp">    -33.50297737 </i>
    <i name="e_0_energy">    -33.50297737 </i>
   </energy>
  </scstep>
  <scstep>
   <time name="dav">   32.75   32.80</time>
   <time name="total">   34.93   34.99</time>
   <energy>
    <i name="e_fr_energy">    -33.53132658 </i>
    <i name="e_wo_entrp">    -33.53132658 </i>
    <i name="e_0_energy">    -33.53132658 </i>
   </energy>
  </scstep>
  <scstep>
   <time name="dav">   25.94   25.98</time>
   <time name="total">   80.16   80.28</time>
   <energy>
    <i name="e_fr_energy">    -43.48779039 </i>
    <i name="e_wo_entrp">    -43.48779039 </i>
    <i name="e_0_energy">    -43.48779039 </i>
   </energy>
  </scstep>
  <scstep>
   <time name="dav">   24.51   25.27</time>
   <time name="total">   78.23   79.50</time>
   <energy>
    <i name="e_fr_energy">    -32.18362308 </i>
    <i name="e_wo_entrp">    -32.18362308 </i>
    <i name="e_0_energy">    -32.18362308 </i>
   </energy>
  </scstep>
  <scstep>
   <time name="dav">   30.60   30.78</time>
   <time name="total">   83.73   84.67</time>
   <energy>
    <i name="e_fr_energy">    -32.25068586 </i>
    <i name="e_wo_entrp">    -32.25068586 </i>
    <i name="e_0_energy">    -32.25068586 </i>
   </energy>
  </scstep>
  <scstep>
   <time name="dav">   28.37   28.56</time>
   <time name="total">   81.46   81.81</time>
   <energy>
    <i name="e_fr_energy">    -32.14656418 </i>
    <i name="e_wo_entrp">    -32.14656418 </i>
    <i name="e_0_energy">    -32.14656418 </i>
   </energy>
  </scstep>
  <scstep>
   <time name="dav">   29.80   30.26</time>
   <time name="total">   82.74   83.64</time>
   <energy>
    <i name="e_fr_energy">    -32.14659102 </i>
    <i name="e_wo_entrp">    -32.14659102 </i>
    <i name="e_0_energy">    -32.14659102 </i>
   </energy>
  </scstep>
  <scstep>
   <time name="dav">   26.02   26.24</time>
   <time name="total">   78.89   79.57</time>
   <energy>
    <i name="e_fr_energy">    -32.14536645 </i>
    <i name="e_wo_entrp">    -32.14536645 </i>
    <i name="e_0_energy">    -32.14536645 </i>
   </energy>
  </scstep>
  <scstep>
   <time name="dav">   25.04   25.16</time>
   <time name="total">   77.94   78.38</time>
   <energy>
    <i name="e_fr_energy">    -32.22430977 </i>
    <i name="e_wo_entrp">    -32.22430977 </i>
    <i name="e_0_energy">    -32.22430977 </i>
   </energy>
  </scstep>
  <scstep>
   <time name="dav">   26.45   26.63</time>
   <time name="total">   79.55   79.93</time>
   <energy>
    <i name="e_fr_energy">    -32.31201375 </i>
    <i name="e_wo_entrp">    -32.31201375 </i>
    <i name="e_0_energy">    -32.31201375 </i>
   </energy>
  </scstep>
  <scstep>
   <time name="dav">   25.44   25.58</time>
   <time name="total">   78.44   78.99</time>
   <energy>
    <i name="e_fr_energy">    -32.31256504 </i>
    <i name="e_wo_entrp">    -32.31256504 </i>
    <i name="e_0_energy">    -32.31256504 </i>
   </energy>
  </scstep>
  <scstep>
   <time name="dav">   24.22   24.29</time>
   <time name="total">   77.56   77.80</time>
   <energy>
    <i name="e_fr_energy">    -32.31321273 </i>
    <i name="e_wo_entrp">    -32.31321273 </i>
    <i name="e_0_energy">    -32.31321273 </i>
   </energy>
  </scstep>
  <scstep>
   <time name="dav">   22.84   23.03</time>
   <time name="total">   75.91   76.28</time>
   <energy>
    <i name="e_fr_energy">    -32.31540981 </i>
    <i name="e_wo_entrp">    -32.31540981 </i>
    <i name="e_0_energy">    -32.31540981 </i>
   </energy>
  </scstep>
  <scstep>
   <time name="dav">   23.70   23.99</time>
   <time name="total">   74.34   74.80</time>
   <energy>
    <i name="alphaZ">     19.82141849 </i>
    <i name="ewald">   8338.88239735 </i>
    <i name="hartreedc"> -11767.66944364 </i>
    <i name="XCdc">   -119.48767258 </i>
    <i name="pawpsdc">   2519.26517873 </i>
    <i name="pawaedc">  -2389.79579636 </i>
    <i name="eentropy">      0.00000000 </i>
    <i name="bandstr">   -426.36773496 </i>
    <i name="atom">   3793.03632354 </i>
    <i name="e_fr_energy">    -32.31532943 </i>
    <i name="e_wo_entrp">    -32.31532943 </i>
    <i name="e_0_energy">    -32.31532943 </i>
   </energy>
  </scstep>
  <structure>
   <crystal>
    <varray name="basis" >
     <v>       6.90777700      -0.00000000       0.00000000 </v>
     <v>       3.45388800       5.98231000       0.00000000 </v>
     <v>       0.00000000       0.00000000      23.44458800 </v>
    </varray>
    <i name="volume">    968.83501932 </i>
    <varray name="rec_basis" >
     <v>       0.14476437      -0.08357974       0.00000000 </v>
     <v>       0.00000000       0.16715951      -0.00000000 </v>
     <v>      -0.00000000       0.00000000       0.04265377 </v>
    </varray>
   </crystal>
   <varray name="positions" >
    <v>       0.33333300       0.33333300       0.49992500 </v>
    <v>       0.66666700       0.66666700       0.50007500 </v>
    <v>       0.00000000       0.00000000       0.44821600 </v>
    <v>       0.00000000       0.00000000       0.55178400 </v>
    <v>       0.62635700       0.00042000       0.57375200 </v>
    <v>       0.00042000       0.37322400       0.57375200 </v>
    <v>       0.37322400       0.62635700       0.57375200 </v>
    <v>       0.37364300       0.99958000       0.42624800 </v>
    <v>       0.99958000       0.62677600       0.42624800 </v>
    <v>       0.62677600       0.37364300       0.42624800 </v>
   </varray>
  </structure>
  <varray name="forces" >
   <v>      -0.00000000      -0.00000000       0.01830910 </v>
   <v>      -0.00000000      -0.00000000       0.01228574 </v>
   <v>      -0.00000000      -0.00000000      -0.06630772 </v>
   <v>      -0.00000000      -0.00000000      -0.27958598 </v>
   <v>      -0.39337356      -0.00605465      -0.53823045 </v>
   <v>       0.19144326       0.34369880      -0.53823045 </v>
   <v>       0.20193029      -0.33764415      -0.53823045 </v>
   <v>      -0.11930742       0.00413566       0.64333007 </v>
   <v>       0.06323529       0.10125542       0.64333007 </v>
   <v>       0.05607213      -0.10539108       0.64333007 </v>
  </varray>
  <varray name="stress" >
   <v>     -13.19993541       0.00000284       0.00000000 </v>
   <v>      -0.00000064     -13.19993380      -0.00000000 </v>
   <v>       0.00000000       0.00000000     -11.67533186 </v>
  </varray>
  <energy>
   <i name="e_fr_energy">    -32.31532943 </i>
   <i name="e_wo_entrp">    -32.31532943 </i>
   <i name="e_0_energy">      0.00000000 </i>
  </energy>
  <time name="totalsc"> 1299.63 1307.94</time>
 </calculation>
 <calculation>
  <scstep>
   <time name="dav">   27.20   27.73</time>
   <time name="total">   80.22   81.12</time>
   <energy>
    <i name="alphaZ">     22.19690147 </i>
    <i name="ewald">   8731.38784771 </i>
    <i name="hartreedc"> -12288.45133521 </i>
    <i name="XCdc">   -114.37933112 </i>
    <i name="pawpsdc">   2519.81436708 </i>
    <i name="pawaedc">  -2390.33796224 </i>
    <i name="eentropy">      0.00000000 </i>
    <i name="bandstr">   -316.58897709 </i>
    <i name="atom">   3793.03632354 </i>
    <i name="e_fr_energy">    -43.32216587 </i>
    <i name="e_wo_entrp">    -43.32216587 </i>
    <i name="e_0_energy">    -43.32216587 </i>
   </energy>
  </scstep>
  <scstep>
   <time name="dav">   22.90   22.96</time>
   <time name="total">   76.32   76.55</time>
   <energy>
    <i name="e_fr_energy">    -91.10513271 </i>
    <i name="e_wo_entrp">    -91.10513271 </i>
    <i name="e_0_energy">    -91.10513271 </i>
   </energy>
  </scstep>
  <scstep>
   <time name="dav">   24.20   24.30</time>
   <time name="total">   77.48   77.76</time>
   <energy>
    <i name="e_fr_energy">    -38.51575552 </i>
    <i name="e_wo_entrp">    -38.51575552 </i>
    <i name="e_0_energy">    -38.51575552 </i>
   </energy>
  </scstep>
  <scstep>
   <time name="dav">   27.44   27.58</time>
   <time name="total">   81.09   81.26</time>
   <energy>
    <i name="e_fr_energy">    -33.28495712 </i>
    <i name="e_wo_entrp">    -33.28495712 </i>
    <i name="e_0_energy">    -33.28495712 </i>
   </energy>
  </scstep>
  <scstep>
   <time name="dav">   34.80   34.94</time>
   <time name="total">   88.40   88.62</time>
   <energy>
    <i name="e_fr_energy">    -44.65900436 </i>
    <i name="e_wo_entrp">    -44.65900436 </i>
    <i name="e_0_energy">    -44.65900436 </i>
   </energy>
  </scstep>
  <scstep>
   <time name="dav">   24.21   24.29</time>
   <time name="total">   77.43   77.78</time>
   <energy>
    <i name="e_fr_energy">    -33.26071982 </i>
    <i name="e_wo_entrp">    -33.26071982 </i>
    <i name="e_0_energy">    -33.26071982 </i>
   </energy>
  </scstep>
  <scstep>
   <time name="dav">   28.60   28.72</time>
   <time name="total">   81.76   82.14</time>
   <energy>
    <i name="e_fr_energy">    -32.71484116 </i>
    <i name="e_wo_entrp">    -32.71484116 </i>
    <i name="e_0_energy">    -32.71484116 </i>
   </energy>
  </scstep>
  <scstep>
   <time name="dav">   31.88   32.14</time>
   <time name="total">   85.01   85.59</time>
   <energy>
    <i name="e_fr_energy">    -32.70885602 </i>
    <i name="e_wo_entrp">    -32.70885602 </i>
    <i name="e_0_energy">    -32.70885602 </i>
   </energy>
  </scstep>
  <scstep>
   <time name="dav">   30.25   30.59</time>
   <time name="total">   83.53   84.09</time>
   <energy>
    <i name="e_fr_energy">    -32.58400316 </i>
    <i name="e_wo_entrp">    -32.58400316 </i>
    <i name="e_0_energy">    -32.58400316 </i>
   </energy>
  </scstep>
  <scstep>
   <time name="dav">   33.14   33.22</time>
   <time name="total">   86.20   86.58</time>
   <energy>
    <i name="e_fr_energy">    -32.57309245 </i>
    <i name="e_wo_entrp">    -32.57309245 </i>
    <i name="e_0_energy">    -32.57309245 </i>
   </energy>
  </scstep>
  <scstep>
   <time name="dav">   30.90   31.00</time>
   <time name="total">   84.45   84.57</time>
   <energy>
    <i name="e_fr_energy">    -32.58179331 </i>
    <i name="e_wo_entrp">    -32.58179331 </i>
    <i name="e_0_energy">    -32.58179331 </i>
   </energy>
  </scstep>
  <scstep>
   <time name="dav">   26.93   26.99</time>
   <time name="total">   80.44   80.53</time>
   <energy>
    <i name="e_fr_energy">    -32.58749781 </i>
    <i name="e_wo_entrp">    -32.58749781 </i>
    <i name="e_0_energy">    -32.58749781 </i>
   </energy>
  </scstep>
  <scstep>
   <time name="dav">   25.40   25.63</time>
   <time name="total">   78.83   79.15</time>
   <energy>
    <i name="e_fr_energy">    -32.58949835 </i>
    <i name="e_wo_entrp">    -32.58949835 </i>
    <i name="e_0_energy">    -32.58949835 </i>
   </energy>
  </scstep>
  <scstep>
   <time name="dav">   25.50   25.67</time>
   <time name="total">   78.94   79.25</time>
   <energy>
    <i name="e_fr_energy">    -32.58786765 </i>
    <i name="e_wo_entrp">    -32.58786765 </i>
    <i name="e_0_energy">    -32.58786765 </i>
   </energy>
  </scstep>
  <scstep>
   <time name="dav">   25.53   25.68</time>
   <time name="total">   78.40   79.11</time>
   <energy>
    <i name="e_fr_energy">    -32.58818395 </i>
    <i name="e_wo_entrp">    -32.58818395 </i>
    <i name="e_0_energy">    -32.58818395 </i>
   </energy>
  </scstep>
  <scstep>
   <time name="dav">   25.58   25.65</time>
   <time name="total">   79.00   79.41</time>
   <energy>
    <i name="e_fr_energy">    -32.58902176 </i>
    <i name="e_wo_entrp">    -32.58902176 </i>
    <i name="e_0_energy">    -32.58902176 </i>
   </energy>
  </scstep>
  <scstep>
   <time name="dav">   25.28   25.66</time>
   <time name="total">   78.40   79.20</time>
   <energy>
    <i name="e_fr_energy">    -32.58763444 </i>
    <i name="e_wo_entrp">    -32.58763444 </i>
    <i name="e_0_energy">    -32.58763444 </i>
   </energy>
  </scstep>
  <scstep>
   <time name="dav">   24.29   24.59</time>
   <time name="total">   77.62   78.07</time>
   <energy>
    <i name="e_fr_energy">    -32.58667535 </i>
    <i name="e_wo_entrp">    -32.58667535 </i>
    <i name="e_0_energy">    -32.58667535 </i>
   </energy>
  </scstep>
  <scstep>
   <time name="dav">   24.83   24.88</time>
   <time name="total">   78.44   78.54</time>
   <energy>
    <i name="e_fr_energy">    -32.58606520 </i>
    <i name="e_wo_entrp">    -32.58606520 </i>
    <i name="e_0_energy">    -32.58606520 </i>
   </energy>
  </scstep>
  <scstep>
   <time name="dav">   22.06   22.24</time>
   <time name="total">   75.53   75.94</time>
   <energy>
    <i name="e_fr_energy">    -32.58587486 </i>
    <i name="e_wo_entrp">    -32.58587486 </i>
    <i name="e_0_energy">    -32.58587486 </i>
   </energy>
  </scstep>
  <scstep>
   <time name="dav">   21.27   21.37</time>
   <time name="total">   74.72   74.97</time>
   <energy>
    <i name="e_fr_energy">    -32.58640475 </i>
    <i name="e_wo_entrp">    -32.58640475 </i>
    <i name="e_0_energy">    -32.58640475 </i>
   </energy>
  </scstep>
  <scstep>
   <time name="dav">   21.21   21.29</time>
   <time name="total">   72.28   72.60</time>
   <energy>
    <i name="alphaZ">     22.19690147 </i>
    <i name="ewald">   8731.38784771 </i>
    <i name="hartreedc"> -12180.08190794 </i>
    <i name="XCdc">   -117.44758152 </i>
    <i name="pawpsdc">   2577.03972659 </i>
    <i name="pawaedc">  -2448.51436684 </i>
    <i name="eentropy">      0.00000000 </i>
    <i name="bandstr">   -410.20344553 </i>
    <i name="atom">   3793.03632354 </i>
    <i name="e_fr_energy">    -32.58650252 </i>
    <i name="e_wo_entrp">    -32.58650252 </i>
    <i name="e_0_energy">    -32.58650252 </i>
   </energy>
  </scstep>
  <structure>
   <crystal>
    <varray name="basis" >
     <v>       6.64177766       0.00000006       0.00000000 </v>
     <v>       3.32088834       5.75194789      -0.00000000 </v>
     <v>       0.00000000       0.00000000      22.64607447 </v>
    </varray>
    <i name="volume">    865.15157952 </i>
    <varray name="rec_basis" >
     <v>       0.15056210      -0.08692706       0.00000000 </v>
     <v>      -0.00000000       0.17385415       0.00000000 </v>
     <v>      -0.00000000       0.00000000       0.04415776 </v>
    </varray>
   </crystal>
   <varray name="positions" >
    <v>       0.33333300       0.33333300       0.49996268 </v>
    <v>       0.66666700       0.66666700       0.50010028 </v>
    <v>      -0.00000000      -0.00000000       0.44807956 </v>
    <v>       0.00000000       0.00000000       0.55178400 </v>
    <v>       0.62635700       0.00042000       0.57375200 </v>
    <v>       0.00042000       0.37322400       0.57375200 </v>
    <v>       0.37322400       0.62635700       0.57375200 </v>
    <v>       0.37364300       0.99958000       0.42624800 </v>
    <v>       0.99958000       0.62677600       0.42624800 </v>
    <v>       0.62677600       0.37364300       0.42624800 </v>
   </varray>
  </structure>
  <varray name="forces" >
   <v>      -0.00000000       0.00000000      -0.01983885 </v>
   <v>      -0.00000000       0.00000000      -0.01639092 </v>
   <v>      -0.00000000       0.00000000      -0.58448680 </v>
   <v>      -0.00000000       0.00000000       0.06331855 </v>
   <v>      -0.88123004      -0.00856478      -0.05183576 </v>
   <v>       0.43319765       0.76744995      -0.05183576 </v>
   <v>       0.44803239      -0.75888517      -0.05183576 </v>
   <v>       0.24369751       0.00437842       0.23763510 </v>
   <v>      -0.11805691      -0.21323743       0.23763510 </v>
   <v>      -0.12564059       0.20885901       0.23763510 </v>
  </varray>
  <varray name="stress" >
   <v>       8.75950917      -0.00000075       0.00000000 </v>
   <v>      -0.00000060       8.75950818       0.00000000 </v>
   <v>       0.00000000      -0.00000000      -0.52015520 </v>
  </varray>
  <energy>
   <i name="e_fr_energy">    -32.58650252 </i>
   <i name="e_wo_entrp">    -32.58650252 </i>
   <i name="e_0_energy">      0.00000000 </i>
  </energy>
  <time name="totalsc"> 1888.41 1897.13</time>
 </calculation>
 <calculation>
  <scstep>
   <time name="dav">   27.67   27.89</time>
   <time name="total">   80.92   81.31</time>
   <energy>
    <i name="alphaZ">     21.51362263 </i>
    <i name="ewald">   8620.91444458 </i>
    <i name="hartreedc"> -12034.68304094 </i>
    <i name="XCdc">   -118.84293432 </i>
    <i name="pawpsdc">   2577.23900324 </i>
    <i name="pawaedc">  -2448.70303325 </i>
    <i name="eentropy">      0.00000000 </i>
    <i name="bandstr">   -443.81989005 </i>
    <i name="atom">   3793.03632354 </i>
    <i name="e_fr_energy">    -33.34550457 </i>
    <i name="e_wo_entrp">    -33.34550457 </i>
    <i name="e_0_energy">    -33.34550457 </i>
   </energy>
  </scstep>
  <scstep>
   <time name="dav">   28.84   29.02</time>
   <time name="total">   82.06   82.62</time>
   <energy>
    <i name="e_fr_energy">    -38.27228988 </i>
    <i name="e_wo_entrp">    -38.27228988 </i>
    <i name="e_0_energy">    -38.27228988 </i>
   </energy>
  </scstep>
  <scstep>
   <time name="dav">   25.20   25.49</time>
   <time name="total">   78.66   79.10</time>
   <energy>
    <i name="e_fr_energy">    -32.92819176 </i>
    <i name="e_wo_entrp">    -32.92819176 </i>
    <i name="e_0_energy">    -32.92819176 </i>
   </energy>
  </scstep>
  <scstep>
   <time name="dav">   25.92   26.09</time>
   <time name="total">   78.88   79.49</time>
   <energy>
    <i name="e_fr_energy">    -32.66215481 </i>
    <i name="e_wo_entrp">    -32.66215481 </i>
    <i name="e_0_energy">    -32.66215481 </i>
   </energy>
  </scstep>
  <scstep>
   <time name="dav">   30.50   30.69</time>
   <time name="total">   84.04   84.29</time>
   <energy>
    <i name="e_fr_energy">    -32.66580687 </i>
    <i name="e_wo_entrp">    -32.66580687 </i>
    <i name="e_0_energy">    -32.66580687 </i>
   </energy>
  </scstep>
  <scstep>
   <time name="dav">   25.24   25.47</time>
   <time name="total">   78.28   78.91</time>
   <energy>
    <i name="e_fr_energy">    -32.63714671 </i>
    <i name="e_wo_entrp">    -32.63714671 </i>
    <i name="e_0_energy">    -32.63714671 </i>
   </energy>
  </scstep>
  <scstep>
   <time name="dav">   30.94   31.06</time>
   <time name="total">   84.20   84.51</time>
   <energy>
    <i name="e_fr_energy">    -32.63157540 </i>
    <i name="e_wo_entrp">    -32.63157540 </i>
    <i name="e_0_energy">    -32.63157540 </i>
   </energy>
  </scstep>
  <scstep>
   <time name="dav">   32.22   32.48</time>
   <time name="total">   85.63   86.00</time>
   <energy>
    <i name="e_fr_energy">    -32.63063869 </i>
    <i name="e_wo_entrp">    -32.63063869 </i>
    <i name="e_0_energy">    -32.63063869 </i>
   </energy>
  </scstep>
  <scstep>
   <time name="dav">   26.16   26.24</time>
   <time name="total">   79.61   79.82</time>
   <energy>
    <i name="e_fr_energy">    -32.63113493 </i>
    <i name="e_wo_entrp">    -32.63113493 </i>
    <i name="e_0_energy">    -32.63113493 </i>
   </energy>
  </scstep>
  <scstep>
   <time name="dav">   23.78   23.89</time>
   <time name="total">   77.04   77.38</time>
   <energy>
    <i name="e_fr_energy">    -32.63147221 </i>
    <i name="e_wo_entrp">    -32.63147221 </i>
    <i name="e_0_energy">    -32.63147221 </i>
   </energy>
  </scstep>
  <scstep>
   <time name="dav">   19.71   19.84</time>
   <time name="total">   73.13   73.36</time>
   <energy>
    <i name="e_fr_energy">    -32.65089996 </i>
    <i name="e_wo_entrp">    -32.65089996 </i>
    <i name="e_0_energy">    -32.65089996 </i>
   </energy>
  </scstep>
  <scstep>
   <time name="dav">   19.15   19.48</time>
   <time name="total">   72.32   72.96</time>
   <energy>
    <i name="e_fr_energy">    -32.65770464 </i>
    <i name="e_wo_entrp">    -32.65770464 </i>
    <i name="e_0_energy">    -32.65770464 </i>
   </energy>
  </scstep>
  <scstep>
   <time name="dav">   20.61   20.66</time>
   <time name="total">   73.94   74.14</time>
   <energy>
    <i name="e_fr_energy">    -32.56072213 </i>
    <i name="e_wo_entrp">    -32.56072213 </i>
    <i name="e_0_energy">    -32.56072213 </i>
   </energy>
  </scstep>
  <scstep>
   <time name="dav">   24.88   25.18</time>
   <time name="total">   77.97   78.75</time>
   <energy>
    <i name="e_fr_energy">    -32.66048348 </i>
    <i name="e_wo_entrp">    -32.66048348 </i>
    <i name="e_0_energy">    -32.66048348 </i>
   </energy>
  </scstep>
  <scstep>
   <time name="dav">   25.62   25.83</time>
   <time name="total">   78.86   79.41</time>
   <energy>
    <i name="e_fr_energy">    -32.59022098 </i>
    <i name="e_wo_entrp">    -32.59022098 </i>
    <i name="e_0_energy">    -32.59022098 </i>
   </energy>
  </scstep>
  <scstep>
   <time name="dav">   26.69   26.91</time>
   <time name="total">   80.05   80.41</time>
   <energy>
    <i name="e_fr_energy">    -32.59456123 </i>
    <i name="e_wo_entrp">    -32.59456123 </i>
    <i name="e_0_energy">    -32.59456123 </i>
   </energy>
  </scstep>
  <scstep>
   <time name="dav">   20.44   20.49</time>
   <time name="total">   73.91   74.12</time>
   <energy>
    <i name="e_fr_energy">    -32.60066503 </i>
    <i name="e_wo_entrp">    -32.60066503 </i>
    <i name="e_0_energy">    -32.60066503 </i>
   </energy>
  </scstep>
  <scstep>
   <time name="dav">   20.56   20.61</time>
   <time name="total">   74.10   74.19</time>
   <energy>
    <i name="e_fr_energy">    -32.61277554 </i>
    <i name="e_wo_entrp">    -32.61277554 </i>
    <i name="e_0_energy">    -32.61277554 </i>
   </energy>
  </scstep>
  <scstep>
   <time name="dav">   23.31   23.42</time>
   <time name="total">   76.70   76.90</time>
   <energy>
    <i name="e_fr_energy">    -32.67407042 </i>
    <i name="e_wo_entrp">    -32.67407042 </i>
    <i name="e_0_energy">    -32.67407042 </i>
   </energy>
  </scstep>
  <scstep>
   <time name="dav">   21.20   21.44</time>
   <time name="total">   74.64   75.02</time>
   <energy>
    <i name="e_fr_energy">    -32.58230023 </i>
    <i name="e_wo_entrp">    -32.58230023 </i>
    <i name="e_0_energy">    -32.58230023 </i>
   </energy>
  </scstep>
  <scstep>
   <time name="dav">   24.74   24.85</time>
   <time name="total">   77.73   78.28</time>
   <energy>
    <i name="e_fr_energy">    -32.58890811 </i>
    <i name="e_wo_entrp">    -32.58890811 </i>
    <i name="e_0_energy">    -32.58890811 </i>
   </energy>
  </scstep>
  <scstep>
   <time name="dav">   22.11   22.37</time>
   <time name="total">   75.10   75.75</time>
   <energy>
    <i name="e_fr_energy">    -32.65009833 </i>
    <i name="e_wo_entrp">    -32.65009833 </i>
    <i name="e_0_energy">    -32.65009833 </i>
   </energy>
  </scstep>
  <scstep>
   <time name="dav">   26.20   26.49</time>
   <time name="total">   79.55   80.05</time>
   <energy>
    <i name="e_fr_energy">    -32.63415452 </i>
    <i name="e_wo_entrp">    -32.63415452 </i>
    <i name="e_0_energy">    -32.63415452 </i>
   </energy>
  </scstep>
  <scstep>
   <time name="dav">   20.91   20.98</time>
   <time name="total">   74.22   74.52</time>
   <energy>
    <i name="e_fr_energy">    -32.56243866 </i>
    <i name="e_wo_entrp">    -32.56243866 </i>
    <i name="e_0_energy">    -32.56243866 </i>
   </energy>
  </scstep>
  <scstep>
   <time name="dav">   25.35   25.53</time>
   <time name="total">   78.44   79.07</time>
   <energy>
    <i name="e_fr_energy">    -32.64286922 </i>
    <i name="e_wo_entrp">    -32.64286922 </i>
    <i name="e_0_energy">    -32.64286922 </i>
   </energy>
  </scstep>
  <scstep>
   <time name="dav">   25.19   25.24</time>
   <time name="total">   78.55   78.95</time>
   <energy>
    <i name="e_fr_energy">    -32.56376449 </i>
    <i name="e_wo_entrp">    -32.56376449 </i>
    <i name="e_0_energy">    -32.56376449 </i>
   </energy>
  </scstep>
  <scstep>
   <time name="dav">   25.33   25.44</time>
   <time name="total">   78.72   79.09</time>
   <energy>
    <i name="e_fr_energy">    -32.57060007 </i>
    <i name="e_wo_entrp">    -32.57060007 </i>
    <i name="e_0_energy">    -32.57060007 </i>
   </energy>
  </scstep>
  <scstep>
   <time name="dav">   25.20   25.50</time>
   <time name="total">   78.72   79.26</time>
   <energy>
    <i name="e_fr_energy">    -32.64072794 </i>
    <i name="e_wo_entrp">    -32.64072794 </i>
    <i name="e_0_energy">    -32.64072794 </i>
   </energy>
  </scstep>
  <scstep>
   <time name="dav">   26.26   26.59</time>
   <time name="total">   79.42   80.22</time>
   <energy>
    <i name="e_fr_energy">    -32.63082836 </i>
    <i name="e_wo_entrp">    -32.63082836 </i>
    <i name="e_0_energy">    -32.63082836 </i>
   </energy>
  </scstep>
  <scstep>
   <time name="dav">   22.70   22.76</time>
   <time name="total">   76.11   76.30</time>
   <energy>
    <i name="e_fr_energy">    -32.63138722 </i>
    <i name="e_wo_entrp">    -32.63138722 </i>
    <i name="e_0_energy">    -32.63138722 </i>
   </energy>
  </scstep>
  <scstep>
   <time name="dav">   20.86   20.92</time>
   <time name="total">   71.51   72.00</time>
   <energy>
    <i name="alphaZ">     21.51362263 </i>
    <i name="ewald">   8620.91444458 </i>
    <i name="hartreedc"> -12063.08547294 </i>
    <i name="XCdc">   -118.11710975 </i>
    <i name="pawpsdc">   2561.01247636 </i>
    <i name="pawaedc">  -2432.06680744 </i>
    <i name="eentropy">      0.00000000 </i>
    <i name="bandstr">   -415.83888861 </i>
    <i name="atom">   3793.03632354 </i>
    <i name="e_fr_energy">    -32.63141163 </i>
    <i name="e_wo_entrp">    -32.63141163 </i>
    <i name="e_0_energy">    -32.63141163 </i>
   </energy>
  </scstep>
  <structure>
   <crystal>
    <varray name="basis" >
     <v>       6.71425091       0.00000004       0.00000000 </v>
     <v>       3.35712496       5.81471154      -0.00000000 </v>
     <v>       0.00000000       0.00000000      22.86363468 </v>
    </varray>
    <i name="volume">    892.62904249 </i>
    <varray name="rec_basis" >
     <v>       0.14893694      -0.08598878       0.00000000 </v>
     <v>      -0.00000000       0.17197758       0.00000000 </v>
     <v>      -0.00000000       0.00000000       0.04373758 </v>
    </varray>
   </crystal>
   <varray name="positions" >
    <v>       0.33333300       0.33333300       0.49995205 </v>
    <v>       0.66666700       0.66666700       0.50009315 </v>
    <v>      -0.00000000      -0.00000000       0.44811804 </v>
    <v>       0.00000000       0.00000000       0.55178400 </v>
    <v>       0.62635700       0.00042000       0.57375200 </v>
    <v>       0.00042000       0.37322400       0.57375200 </v>
    <v>       0.37322400       0.62635700       0.57375200 </v>
    <v>       0.37364300       0.99958000       0.42624800 </v>
    <v>       0.99958000       0.62677600       0.42624800 </v>
    <v>       0.62677600       0.37364300       0.42624800 </v>
   </varray>
  </structure>
  <varray name="forces" >
   <v>      -0.00000000      -0.00000000      -0.02950647 </v>
   <v>      -0.00000000      -0.00000000      -0.03350193 </v>
   <v>      -0.00000000      -0.00000000      -0.50460566 </v>
   <v>      -0.00000000      -0.00000000       0.01355899 </v>
   <v>      -0.71905804      -0.00858353      -0.25022387 </v>
   <v>       0.35209542       0.62701426      -0.25022387 </v>
   <v>       0.36696263      -0.61843073      -0.25022387 </v>
   <v>       0.15759605      -0.00055275       0.43490890 </v>
   <v>      -0.07927671      -0.13620580       0.43490890 </v>
   <v>      -0.07831934       0.13675855       0.43490890 </v>
  </varray>
  <varray name="stress" >
   <v>       1.82239582       0.00000670       0.00000000 </v>
   <v>      -0.00000698       1.82239561      -0.00000000 </v>
   <v>       0.00000000       0.00000000      -4.49494490 </v>
  </varray>
  <energy>
   <i name="e_fr_energy">    -32.63141163 </i>
   <i name="e_wo_entrp">    -32.63141163 </i>
   <i name="e_0_energy">      0.00000000 </i>
  </energy>
  <time name="totalsc"> 2546.58 2560.26</time>
 </calculation>
 <calculation>
  <scstep>
   <time name="dav">   26.84   27.01</time>
   <time name="total">   80.47   80.72</time>
   <energy>
    <i name="alphaZ">     21.67873660 </i>
    <i name="ewald">   8390.92577264 </i>
    <i name="hartreedc"> -11854.66918827 </i>
    <i name="XCdc">   -117.77843844 </i>
    <i name="pawpsdc">   2561.01229595 </i>
    <i name="pawaedc">  -2432.06656510 </i>
    <i name="eentropy">      0.00000000 </i>
    <i name="bandstr">   -394.91565098 </i>
    <i name="atom">   3793.03632354 </i>
    <i name="e_fr_energy">    -32.77671407 </i>
    <i name="e_wo_entrp">    -32.77671407 </i>
    <i name="e_0_energy">    -32.77671407 </i>
   </energy>
  </scstep>
  <scstep>
   <time name="dav">   24.11   24.32</time>
   <time name="total">   77.37   77.86</time>
   <energy>
    <i name="e_fr_energy">    -33.17053431 </i>
    <i name="e_wo_entrp">    -33.17053431 </i>
    <i name="e_0_energy">    -33.17053431 </i>
   </energy>
  </scstep>
  <scstep>
   <time name="dav">   25.54   25.62</time>
   <time name="total">   78.78   79.04</time>
   <energy>
    <i name="e_fr_energy">    -32.68574198 </i>
    <i name="e_wo_entrp">    -32.68574198 </i>
    <i name="e_0_energy">    -32.68574198 </i>
   </energy>
  </scstep>
  <scstep>
   <time name="dav">   31.95   32.20</time>
   <time name="total">   85.05   85.66</time>
   <energy>
    <i name="e_fr_energy">    -32.73218197 </i>
    <i name="e_wo_entrp">    -32.73218197 </i>
    <i name="e_0_energy">    -32.73218197 </i>
   </energy>
  </scstep>
  <scstep>
   <time name="dav">   25.64   25.83</time>
   <time name="total">   78.96   79.28</time>
   <energy>
    <i name="e_fr_energy">    -32.67221804 </i>
    <i name="e_wo_entrp">    -32.67221804 </i>
    <i name="e_0_energy">    -32.67221804 </i>
   </energy>
  </scstep>
  <scstep>
   <time name="dav">   26.66   27.17</time>
   <time name="total">   79.67   80.71</time>
   <energy>
    <i name="e_fr_energy">    -32.67386645 </i>
    <i name="e_wo_entrp">    -32.67386645 </i>
    <i name="e_0_energy">    -32.67386645 </i>
   </energy>
  </scstep>
  <scstep>
   <time name="dav">   26.12   26.16</time>
   <time name="total">   79.62   79.71</time>
   <energy>
    <i name="e_fr_energy">    -32.67370530 </i>
    <i name="e_wo_entrp">    -32.67370530 </i>
    <i name="e_0_energy">    -32.67370530 </i>
   </energy>
  </scstep>
  <scstep>
   <time name="dav">   22.79   22.83</time>
   <time name="total">   76.37   76.53</time>
   <energy>
    <i name="e_fr_energy">    -32.67405763 </i>
    <i name="e_wo_entrp">    -32.67405763 </i>
    <i name="e_0_energy">    -32.67405763 </i>
   </energy>
  </scstep>
  <scstep>
   <time name="dav">   21.04   21.07</time>
   <time name="total">   74.53   74.58</time>
   <energy>
    <i name="e_fr_energy">    -32.67377550 </i>
    <i name="e_wo_entrp">    -32.67377550 </i>
    <i name="e_0_energy">    -32.67377550 </i>
   </energy>
  </scstep>
  <scstep>
   <time name="dav">   24.10   24.27</time>
   <time name="total">   77.48   77.88</time>
   <energy>
    <i name="e_fr_energy">    -32.67526767 </i>
    <i name="e_wo_entrp">    -32.67526767 </i>
    <i name="e_0_energy">    -32.67526767 </i>
   </energy>
  </scstep>
  <scstep>
   <time name="dav">   24.39   24.45</time>
   <time name="total">   75.48   75.70</time>
   <energy>
    <i name="alphaZ">     21.67873660 </i>
    <i name="ewald">   8390.92577264 </i>
    <i name="hartreedc"> -11841.78697175 </i>
    <i name="XCdc">   -118.01260424 </i>
    <i name="pawpsdc">   2563.32044674 </i>
    <i name="pawaedc">  -2434.43971699 </i>
    <i name="eentropy">      0.00000000 </i>
    <i name="bandstr">   -407.39733729 </i>
    <i name="atom">   3793.03632354 </i>
    <i name="e_fr_energy">    -32.67535076 </i>
    <i name="e_wo_entrp">    -32.67535076 </i>
    <i name="e_0_energy">    -32.67535076 </i>
   </energy>
  </scstep>
  <structure>
   <crystal>
    <varray name="basis" >
     <v>       6.73279732       0.00000016      -0.00000000 </v>
     <v>       3.36639806       5.83077326      -0.00000000 </v>
     <v>       0.00000000       0.00000000      22.56466559 </v>
    </varray>
    <i name="volume">    885.83042104 </i>
    <varray name="rec_basis" >
     <v>       0.14852668      -0.08575191       0.00000000 </v>
     <v>      -0.00000000       0.17150384      -0.00000000 </v>
     <v>      -0.00000000       0.00000000       0.04431708 </v>
    </varray>
   </crystal>
   <varray name="positions" >
    <v>       0.33333300       0.33333300       0.49989506 </v>
    <v>       0.66666700       0.66666700       0.50002757 </v>
    <v>      -0.00000000      -0.00000000       0.44710454 </v>
    <v>       0.00000000       0.00000000       0.55178400 </v>
    <v>       0.62635700       0.00042000       0.57375200 </v>
    <v>       0.00042000       0.37322400       0.57375200 </v>
    <v>       0.37322400       0.62635700       0.57375200 </v>
    <v>       0.37364300       0.99958000       0.42624800 </v>
    <v>       0.99958000       0.62677600       0.42624800 </v>
    <v>       0.62677600       0.37364300       0.42624800 </v>
   </varray>
  </structure>
  <varray name="forces" >
   <v>      -0.00000000       0.00000000      -0.03328212 </v>
   <v>      -0.00000000       0.00000000      -0.03051127 </v>
   <v>      -0.00000000       0.00000000      -0.52641829 </v>
   <v>      -0.00000000       0.00000000       0.08838406 </v>
   <v>      -0.68037056      -0.01367562      -0.19150254 </v>
   <v>       0.32834180       0.59605597      -0.19150254 </v>
   <v>       0.35202876      -0.58238035      -0.19150254 </v>
   <v>       0.19881614      -0.00934719       0.35877841 </v>
   <v>      -0.10750296      -0.16750622       0.35877841 </v>
   <v>      -0.09131318       0.17685342       0.35877841 </v>
  </varray>
  <varray name="stress" >
   <v>       0.52215870      -0.00000019       0.00000000 </v>
   <v>       0.00000010       0.52215864       0.00000000 </v>
   <v>       0.00000000       0.00000000      -5.00643795 </v>
  </varray>
  <energy>
   <i name="e_fr_energy">    -32.67535076 </i>
   <i name="e_wo_entrp">    -32.67535076 </i>
   <i name="e_0_energy">      0.00000000 </i>
  </energy>
  <time name="totalsc">  997.12 1002.01</time>
 </calculation>
 <calculation>
  <scstep>
   <time name="dav">   26.36   26.41</time>
   <time name="total">   79.53   79.92</time>
   <energy>
    <i name="alphaZ">     22.20753950 </i>
    <i name="ewald">   7713.90220555 </i>
    <i name="hartreedc"> -11230.49254795 </i>
    <i name="XCdc">   -116.94288323 </i>
    <i name="pawpsdc">   2563.66685130 </i>
    <i name="pawaedc">  -2434.78711137 </i>
    <i name="eentropy">      0.00000000 </i>
    <i name="bandstr">   -344.38536422 </i>
    <i name="atom">   3793.03632354 </i>
    <i name="e_fr_energy">    -33.79498689 </i>
    <i name="e_wo_entrp">    -33.79498689 </i>
    <i name="e_0_energy">    -33.79498689 </i>
   </energy>
  </scstep>
  <scstep>
   <time name="dav">   26.11   26.34</time>
   <time name="total">   79.37   79.95</time>
   <energy>
    <i name="e_fr_energy">    -37.47759469 </i>
    <i name="e_wo_entrp">    -37.47759469 </i>
    <i name="e_0_energy">    -37.47759469 </i>
   </energy>
  </scstep>
  <scstep>
   <time name="dav">   24.68   25.05</time>
   <time name="total">   77.43   78.94</time>
   <energy>
    <i name="e_fr_energy">    -32.78192357 </i>
    <i name="e_wo_entrp">    -32.78192357 </i>
    <i name="e_0_energy">    -32.78192357 </i>
   </energy>
  </scstep>
  <scstep>
   <time name="dav">   31.36   31.49</time>
   <time name="total">   84.53   84.87</time>
   <energy>
    <i name="e_fr_energy">    -33.08273882 </i>
    <i name="e_wo_entrp">    -33.08273882 </i>
    <i name="e_0_energy">    -33.08273882 </i>
   </energy>
  </scstep>
  <scstep>
   <time name="dav">   29.67   29.96</time>
   <time name="total">   83.11   83.62</time>
   <energy>
    <i name="e_fr_energy">    -32.95520015 </i>
    <i name="e_wo_entrp">    -32.95520015 </i>
    <i name="e_0_energy">    -32.95520015 </i>
   </energy>
  </scstep>
  <scstep>
   <time name="dav">   26.09   26.38</time>
   <time name="total">   79.47   79.98</time>
   <energy>
    <i name="e_fr_energy">    -32.75032179 </i>
    <i name="e_wo_entrp">    -32.75032179 </i>
    <i name="e_0_energy">    -32.75032179 </i>
   </energy>
  </scstep>
  <scstep>
   <time name="dav">   27.54   27.95</time>
   <time name="total">   81.07   81.63</time>
   <energy>
    <i name="e_fr_energy">    -32.74785032 </i>
    <i name="e_wo_entrp">    -32.74785032 </i>
    <i name="e_0_energy">    -32.74785032 </i>
   </energy>
  </scstep>
  <scstep>
   <time name="dav">   26.34   26.50</time>
   <time name="total">   79.60   79.97</time>
   <energy>
    <i name="e_fr_energy">    -32.75100906 </i>
    <i name="e_wo_entrp">    -32.75100906 </i>
    <i name="e_0_energy">    -32.75100906 </i>
   </energy>
  </scstep>
  <scstep>
   <time name="dav">   24.26   24.30</time>
   <time name="total">   77.74   77.87</time>
   <energy>
    <i name="e_fr_energy">    -32.75372617 </i>
    <i name="e_wo_entrp">    -32.75372617 </i>
    <i name="e_0_energy">    -32.75372617 </i>
   </energy>
  </scstep>
  <scstep>
   <time name="dav">   24.32   24.43</time>
   <time name="total">   77.71   77.95</time>
   <energy>
    <i name="e_fr_energy">    -32.75628201 </i>
    <i name="e_wo_entrp">    -32.75628201 </i>
    <i name="e_0_energy">    -32.75628201 </i>
   </energy>
  </scstep>
  <scstep>
   <time name="dav">   24.62   24.65</time>
   <time name="total">   77.94   78.19</time>
   <energy>
    <i name="e_fr_energy">    -32.73245957 </i>
    <i name="e_wo_entrp">    -32.73245957 </i>
    <i name="e_0_energy">    -32.73245957 </i>
   </energy>
  </scstep>
  <scstep>
   <time name="dav">   23.92   24.05</time>
   <time name="total">   77.37   77.65</time>
   <energy>
    <i name="e_fr_energy">    -32.77743107 </i>
    <i name="e_wo_entrp">    -32.77743107 </i>
    <i name="e_0_energy">    -32.77743107 </i>
   </energy>
  </scstep>
  <scstep>
   <time name="dav">   23.62   23.69</time>
   <time name="total">   77.03   77.21</time>
   <energy>
    <i name="e_fr_energy">    -32.75792937 </i>
    <i name="e_wo_entrp">    -32.75792937 </i>
    <i name="e_0_energy">    -32.75792937 </i>
   </energy>
  </scstep>
  <scstep>
   <time name="dav">   23.62   23.71</time>
   <time name="total">   76.87   77.30</time>
   <energy>
    <i name="e_fr_energy">    -32.73604554 </i>
    <i name="e_wo_entrp">    -32.73604554 </i>
    <i name="e_0_energy">    -32.73604554 </i>
   </energy>
  </scstep>
  <scstep>
   <time name="dav">   27.52   27.71</time>
   <time name="total">   81.18   81.41</time>
   <energy>
    <i name="e_fr_energy">    -32.75219385 </i>
    <i name="e_wo_entrp">    -32.75219385 </i>
    <i name="e_0_energy">    -32.75219385 </i>
   </energy>
  </scstep>
  <scstep>
   <time name="dav">   29.23   29.28</time>
   <time name="total">   82.57   82.81</time>
   <energy>
    <i name="e_fr_energy">    -32.75138893 </i>
    <i name="e_wo_entrp">    -32.75138893 </i>
    <i name="e_0_energy">    -32.75138893 </i>
   </energy>
  </scstep>
  <scstep>
   <time name="dav">   27.88   27.96</time>
   <time name="total">   81.33   81.53</time>
   <energy>
    <i name="e_fr_energy">    -32.75128449 </i>
    <i name="e_wo_entrp">    -32.75128449 </i>
    <i name="e_0_energy">    -32.75128449 </i>
   </energy>
  </scstep>
  <scstep>
   <time name="dav">   23.63   23.67</time>
   <time name="total">   77.17   77.30</time>
   <energy>
    <i name="e_fr_energy">    -32.75010674 </i>
    <i name="e_wo_entrp">    -32.75010674 </i>
    <i name="e_0_energy">    -32.75010674 </i>
   </energy>
  </scstep>
  <scstep>
   <time name="dav">   23.22   23.26</time>
   <time name="total">   76.94   77.01</time>
   <energy>
    <i name="e_fr_energy">    -32.74956543 </i>
    <i name="e_wo_entrp">    -32.74956543 </i>
    <i name="e_0_energy">    -32.74956543 </i>
   </energy>
  </scstep>
  <scstep>
   <time name="dav">   23.36   23.40</time>
   <time name="total">   76.90   77.04</time>
   <energy>
    <i name="e_fr_energy">    -32.74850854 </i>
    <i name="e_wo_entrp">    -32.74850854 </i>
    <i name="e_0_energy">    -32.74850854 </i>
   </energy>
  </scstep>
  <scstep>
   <time name="dav">   23.78   23.82</time>
   <time name="total">   77.25   77.51</time>
   <energy>
    <i name="e_fr_energy">    -32.74780246 </i>
    <i name="e_wo_entrp">    -32.74780246 </i>
    <i name="e_0_energy">    -32.74780246 </i>
   </energy>
  </scstep>
  <scstep>
   <time name="dav">   22.70   22.92</time>
   <time name="total">   73.55   74.09</time>
   <energy>
    <i name="alphaZ">     22.20753950 </i>
    <i name="ewald">   7713.90220555 </i>
    <i name="hartreedc"> -11164.29933065 </i>
    <i name="XCdc">   -117.84412855 </i>
    <i name="pawpsdc">   2573.72848821 </i>
    <i name="pawaedc">  -2445.13381648 </i>
    <i name="eentropy">      0.00000000 </i>
    <i name="bandstr">   -408.34503944 </i>
    <i name="atom">   3793.03632354 </i>
    <i name="e_fr_energy">    -32.74775833 </i>
    <i name="e_wo_entrp">    -32.74775833 </i>
    <i name="e_0_energy">    -32.74775833 </i>
   </energy>
  </scstep>
  <structure>
   <crystal>
    <varray name="basis" >
     <v>       6.78843655       0.00000051      -0.00000000 </v>
     <v>       3.39421736       5.87895842      -0.00000000 </v>
     <v>       0.00000000       0.00000000      21.66775833 </v>
    </varray>
    <i name="volume">    864.73714794 </i>
    <varray name="rec_basis" >
     <v>       0.14730933      -0.08504906       0.00000000 </v>
     <v>      -0.00000001       0.17009817      -0.00000000 </v>
     <v>      -0.00000000       0.00000000       0.04615152 </v>
    </varray>
   </crystal>
   <varray name="positions" >
    <v>       0.33333300       0.33333300       0.49972182 </v>
    <v>       0.66666700       0.66666700       0.49982823 </v>
    <v>      -0.00000000      -0.00000000       0.44402376 </v>
    <v>       0.00000000       0.00000000       0.55178400 </v>
    <v>       0.62635700       0.00042000       0.57375200 </v>
    <v>       0.00042000       0.37322400       0.57375200 </v>
    <v>       0.37322400       0.62635700       0.57375200 </v>
    <v>       0.37364300       0.99958000       0.42624800 </v>
    <v>       0.99958000       0.62677600       0.42624800 </v>
    <v>       0.62677600       0.37364300       0.42624800 </v>
   </varray>
  </structure>
  <varray name="forces" >
   <v>       0.00000000      -0.00000000      -0.02019574 </v>
   <v>       0.00000000      -0.00000000      -0.00860326 </v>
   <v>       0.00000000      -0.00000000      -0.64972941 </v>
   <v>       0.00000000      -0.00000000       0.32441086 </v>
   <v>      -0.57130732      -0.01003716       0.06482481 </v>
   <v>       0.27696119       0.49978521       0.06482481 </v>
   <v>       0.29434614      -0.48974805       0.06482481 </v>
   <v>       0.30105709       0.00535369       0.05321438 </v>
   <v>      -0.14589209      -0.26339991       0.05321438 </v>
   <v>      -0.15516500       0.25804623       0.05321438 </v>
  </varray>
  <varray name="stress" >
   <v>       0.00873804      -0.00000157       0.00000000 </v>
   <v>       0.00000157       0.00873804      -0.00000000 </v>
   <v>       0.00000000      -0.00000000       0.82201135 </v>
  </varray>
  <energy>
   <i name="e_fr_energy">    -32.74775833 </i>
   <i name="e_wo_entrp">    -32.74775833 </i>
   <i name="e_0_energy">      0.00000000 </i>
  </energy>
  <time name="totalsc"> 1869.34 1878.37</time>
 </calculation>
 <calculation>
  <scstep>
   <time name="dav">   25.91   25.96</time>
   <time name="total">   79.39   79.60</time>
   <energy>
    <i name="alphaZ">     22.33594265 </i>
    <i name="ewald">   7561.65353020 </i>
    <i name="hartreedc"> -11027.60050619 </i>
    <i name="XCdc">   -117.59424258 </i>
    <i name="pawpsdc">   2573.75537315 </i>
    <i name="pawaedc">  -2445.16556699 </i>
    <i name="eentropy">      0.00000000 </i>
    <i name="bandstr">   -393.22888745 </i>
    <i name="atom">   3793.03632354 </i>
    <i name="e_fr_energy">    -32.80803368 </i>
    <i name="e_wo_entrp">    -32.80803368 </i>
    <i name="e_0_energy">    -32.80803368 </i>
   </energy>
  </scstep>
  <scstep>
   <time name="dav">   24.66   25.00</time>
   <time name="total">   78.22   78.64</time>
   <energy>
    <i name="e_fr_energy">    -33.02375853 </i>
    <i name="e_wo_entrp">    -33.02375853 </i>
    <i name="e_0_energy">    -33.02375853 </i>
   </energy>
  </scstep>
  <scstep>
   <time name="dav">   24.64   24.82</time>
   <time name="total">   78.46   78.74</time>
   <energy>
    <i name="e_fr_energy">    -32.75412752 </i>
    <i name="e_wo_entrp">    -32.75412752 </i>
    <i name="e_0_energy">    -32.75412752 </i>
   </energy>
  </scstep>
  <scstep>
   <time name="dav">   30.70   30.95</time>
   <time name="total">   83.84   84.57</time>
   <energy>
    <i name="e_fr_energy">    -32.75271190 </i>
    <i name="e_wo_entrp">    -32.75271190 </i>
    <i name="e_0_energy">    -32.75271190 </i>
   </energy>
  </scstep>
  <scstep>
   <time name="dav">   29.03   29.40</time>
   <time name="total">   82.56   83.07</time>
   <energy>
    <i name="e_fr_energy">    -32.74451561 </i>
    <i name="e_wo_entrp">    -32.74451561 </i>
    <i name="e_0_energy">    -32.74451561 </i>
   </energy>
  </scstep>
  <scstep>
   <time name="dav">   26.18   26.41</time>
   <time name="total">   79.65   79.98</time>
   <energy>
    <i name="e_fr_energy">    -32.74301816 </i>
    <i name="e_wo_entrp">    -32.74301816 </i>
    <i name="e_0_energy">    -32.74301816 </i>
   </energy>
  </scstep>
  <scstep>
   <time name="dav">   25.28   25.40</time>
   <time name="total">   78.59   78.96</time>
   <energy>
    <i name="e_fr_energy">    -32.74359509 </i>
    <i name="e_wo_entrp">    -32.74359509 </i>
    <i name="e_0_energy">    -32.74359509 </i>
   </energy>
  </scstep>
  <scstep>
   <time name="dav">   23.48   23.64</time>
   <time name="total">   76.91   77.10</time>
   <energy>
    <i name="e_fr_energy">    -32.74442294 </i>
    <i name="e_wo_entrp">    -32.74442294 </i>
    <i name="e_0_energy">    -32.74442294 </i>
   </energy>
  </scstep>
  <scstep>
   <time name="dav">   23.99   24.09</time>
   <time name="total">   77.42   77.68</time>
   <energy>
    <i name="e_fr_energy">    -32.74529236 </i>
    <i name="e_wo_entrp">    -32.74529236 </i>
    <i name="e_0_energy">    -32.74529236 </i>
   </energy>
  </scstep>
  <scstep>
   <time name="dav">   23.46   23.64</time>
   <time name="total">   76.78   77.01</time>
   <energy>
    <i name="e_fr_energy">    -32.74631822 </i>
    <i name="e_wo_entrp">    -32.74631822 </i>
    <i name="e_0_energy">    -32.74631822 </i>
   </energy>
  </scstep>
  <scstep>
   <time name="dav">   25.05   25.34</time>
   <time name="total">   78.38   78.88</time>
   <energy>
    <i name="e_fr_energy">    -32.74660894 </i>
    <i name="e_wo_entrp">    -32.74660894 </i>
    <i name="e_0_energy">    -32.74660894 </i>
   </energy>
  </scstep>
  <scstep>
   <time name="dav">   20.84   21.01</time>
   <time name="total">   71.78   72.34</time>
   <energy>
    <i name="alphaZ">     22.33594265 </i>
    <i name="ewald">   7561.65353020 </i>
    <i name="hartreedc"> -11011.34141129 </i>
    <i name="XCdc">   -117.82671209 </i>
    <i name="pawpsdc">   2575.93946130 </i>
    <i name="pawaedc">  -2447.38219440 </i>
    <i name="eentropy">      0.00000000 </i>
    <i name="bandstr">   -409.16148101 </i>
    <i name="atom">   3793.03632354 </i>
    <i name="e_fr_energy">    -32.74654111 </i>
    <i name="e_wo_entrp">    -32.74654111 </i>
    <i name="e_0_energy">    -32.74654111 </i>
   </energy>
  </scstep>
  <structure>
   <crystal>
    <varray name="basis" >
     <v>       6.80115887       0.00000059      -0.00000000 </v>
     <v>       3.40057845       5.88997630      -0.00000000 </v>
     <v>       0.00000000       0.00000000      21.46267394 </v>
    </varray>
    <i name="volume">    859.76601358 </i>
    <varray name="rec_basis" >
     <v>       0.14703377      -0.08488996       0.00000000 </v>
     <v>      -0.00000001       0.16977998      -0.00000000 </v>
     <v>      -0.00000000       0.00000000       0.04659252 </v>
    </varray>
   </crystal>
   <varray name="positions" >
    <v>       0.33333300       0.33333300       0.49968056 </v>
    <v>       0.66666700       0.66666700       0.49978076 </v>
    <v>      -0.00000000      -0.00000000       0.44329016 </v>
    <v>       0.00000000       0.00000000       0.55178400 </v>
    <v>       0.62635700       0.00042000       0.57375200 </v>
    <v>       0.00042000       0.37322400       0.57375200 </v>
    <v>       0.37322400       0.62635700       0.57375200 </v>
    <v>       0.37364300       0.99958000       0.42624800 </v>
    <v>       0.99958000       0.62677600       0.42624800 </v>
    <v>       0.62677600       0.37364300       0.42624800 </v>
   </varray>
  </structure>
  <varray name="forces" >
   <v>       0.00000000       0.00000000      -0.01539669 </v>
   <v>       0.00000000       0.00000000      -0.00151434 </v>
   <v>       0.00000000       0.00000000      -0.69578549 </v>
   <v>       0.00000000       0.00000000       0.37344340 </v>
   <v>      -0.55622560      -0.00801095       0.12641039 </v>
   <v>       0.27117507       0.48571095       0.12641039 </v>
   <v>       0.28505053      -0.47770000       0.12641039 </v>
   <v>       0.33593055       0.00583380      -0.01332602 </v>
   <v>      -0.16291303      -0.29384127      -0.01332602 </v>
   <v>      -0.17301752       0.28800747      -0.01332602 </v>
  </varray>
  <varray name="stress" >
   <v>       0.91441012      -0.00000135      -0.00000000 </v>
   <v>       0.00000120       0.91441001       0.00000000 </v>
   <v>       0.00000000       0.00000000       3.47558040 </v>
  </varray>
  <energy>
   <i name="e_fr_energy">    -32.74654111 </i>
   <i name="e_wo_entrp">    -32.74654111 </i>
   <i name="e_0_energy">      0.00000000 </i>
  </energy>
  <time name="totalsc"> 1076.42 1081.36</time>
 </calculation>
 <calculation>
  <scstep>
   <time name="dav">   22.87   22.93</time>
   <time name="total">   76.20   76.52</time>
   <energy>
    <i name="alphaZ">     22.13014774 </i>
    <i name="ewald">   7390.33769831 </i>
    <i name="hartreedc"> -10836.54123093 </i>
    <i name="XCdc">   -118.29432739 </i>
    <i name="pawpsdc">   2575.97343919 </i>
    <i name="pawaedc">  -2447.42340447 </i>
    <i name="eentropy">      0.00000000 </i>
    <i name="bandstr">   -412.03400434 </i>
    <i name="atom">   3793.03632354 </i>
    <i name="e_fr_energy">    -32.81535835 </i>
    <i name="e_wo_entrp">    -32.81535835 </i>
    <i name="e_0_energy">    -32.81535835 </i>
   </energy>
  </scstep>
  <scstep>
   <time name="dav">   28.35   28.40</time>
   <time name="total">   81.46   81.93</time>
   <energy>
    <i name="e_fr_energy">    -33.17146790 </i>
    <i name="e_wo_entrp">    -33.17146790 </i>
    <i name="e_0_energy">    -33.17146790 </i>
   </energy>
  </scstep>
  <scstep>
   <time name="dav">   24.56   24.65</time>
   <time name="total">   78.16   78.31</time>
   <energy>
    <i name="e_fr_energy">    -32.78517141 </i>
    <i name="e_wo_entrp">    -32.78517141 </i>
    <i name="e_0_energy">    -32.78517141 </i>
   </energy>
  </scstep>
  <scstep>
   <time name="dav">   25.76   25.94</time>
   <time name="total">   79.40   79.69</time>
   <energy>
    <i name="e_fr_energy">    -32.77164214 </i>
    <i name="e_wo_entrp">    -32.77164214 </i>
    <i name="e_0_energy">    -32.77164214 </i>
   </energy>
  </scstep>
  <scstep>
   <time name="dav">   30.49   30.62</time>
   <time name="total">   83.88   84.20</time>
   <energy>
    <i name="e_fr_energy">    -32.77041795 </i>
    <i name="e_wo_entrp">    -32.77041795 </i>
    <i name="e_0_energy">    -32.77041795 </i>
   </energy>
  </scstep>
  <scstep>
   <time name="dav">   27.79   27.95</time>
   <time name="total">   81.14   81.55</time>
   <energy>
    <i name="e_fr_energy">    -32.76783157 </i>
    <i name="e_wo_entrp">    -32.76783157 </i>
    <i name="e_0_energy">    -32.76783157 </i>
   </energy>
  </scstep>
  <scstep>
   <time name="dav">   28.39   28.73</time>
   <time name="total">   81.38   82.11</time>
   <energy>
    <i name="e_fr_energy">    -32.76752936 </i>
    <i name="e_wo_entrp">    -32.76752936 </i>
    <i name="e_0_energy">    -32.76752936 </i>
   </energy>
  </scstep>
  <scstep>
   <time name="dav">   18.11   18.13</time>
   <time name="total">   71.19   71.58</time>
   <energy>
    <i name="e_fr_energy">    -32.76739465 </i>
    <i name="e_wo_entrp">    -32.76739465 </i>
    <i name="e_0_energy">    -32.76739465 </i>
   </energy>
  </scstep>
  <scstep>
   <time name="dav">   18.57   18.65</time>
   <time name="total">   69.63   69.91</time>
   <energy>
    <i name="alphaZ">     22.13014774 </i>
    <i name="ewald">   7390.33769831 </i>
    <i name="hartreedc"> -10839.75760029 </i>
    <i name="XCdc">   -118.11121004 </i>
    <i name="pawpsdc">   2569.53596416 </i>
    <i name="pawaedc">  -2440.81651686 </i>
    <i name="eentropy">      0.00000000 </i>
    <i name="bandstr">   -409.12212345 </i>
    <i name="atom">   3793.03632354 </i>
    <i name="e_fr_energy">    -32.76731689 </i>
    <i name="e_wo_entrp">    -32.76731689 </i>
    <i name="e_0_energy">    -32.76731689 </i>
   </energy>
  </scstep>
  <structure>
   <crystal>
    <varray name="basis" >
     <v>       6.84325813       0.00000070      -0.00000000 </v>
     <v>       3.42162798       5.92643538      -0.00000000 </v>
     <v>      -0.00000000       0.00000000      21.39655211 </v>
    </varray>
    <i name="volume">    867.76123656 </i>
    <varray name="rec_basis" >
     <v>       0.14612923      -0.08436772       0.00000000 </v>
     <v>      -0.00000002       0.16873550      -0.00000000 </v>
     <v>       0.00000000       0.00000000       0.04673650 </v>
    </varray>
   </crystal>
   <varray name="positions" >
    <v>       0.33333300       0.33333300       0.49956713 </v>
    <v>       0.66666700       0.66666700       0.49969749 </v>
    <v>       0.00000000      -0.00000000       0.44004179 </v>
    <v>       0.00000000       0.00000000       0.55178400 </v>
    <v>       0.62635700       0.00042000       0.57375200 </v>
    <v>       0.00042000       0.37322400       0.57375200 </v>
    <v>       0.37322400       0.62635700       0.57375200 </v>
    <v>       0.37364300       0.99958000       0.42624800 </v>
    <v>       0.99958000       0.62677600       0.42624800 </v>
    <v>       0.62677600       0.37364300       0.42624800 </v>
   </varray>
  </structure>
  <varray name="forces" >
   <v>       0.00000000       0.00000000       0.01131429 </v>
   <v>       0.00000000       0.00000000       0.02173810 </v>
   <v>       0.00000000       0.00000000      -0.10746232 </v>
   <v>       0.00000000       0.00000000      -0.07762574 </v>
   <v>      -0.48113527      -0.00713002       0.05884040 </v>
   <v>       0.23439282       0.42024036       0.05884040 </v>
   <v>       0.24674245      -0.41311033       0.05884040 </v>
   <v>       0.40552734       0.00409726      -0.00816184 </v>
   <v>      -0.19921531      -0.35324559      -0.00816184 </v>
   <v>      -0.20631203       0.34914833      -0.00816184 </v>
  </varray>
  <varray name="stress" >
   <v>      -1.78257297      -0.00000130       0.00000000 </v>
   <v>       0.00000159      -1.78257275       0.00000000 </v>
   <v>       0.00000000       0.00000000       0.20427766 </v>
  </varray>
  <energy>
   <i name="e_fr_energy">    -32.76731689 </i>
   <i name="e_wo_entrp">    -32.76731689 </i>
   <i name="e_0_energy">      0.00000000 </i>
  </energy>
  <time name="totalsc">  836.07  840.10</time>
 </calculation>
 <calculation>
  <scstep>
   <time name="dav">   24.16   24.41</time>
   <time name="total">   77.43   77.91</time>
   <energy>
    <i name="alphaZ">     22.15122634 </i>
    <i name="ewald">   7407.89263329 </i>
    <i name="hartreedc"> -10857.19113800 </i>
    <i name="XCdc">   -118.06611521 </i>
    <i name="pawpsdc">   2569.46240593 </i>
    <i name="pawaedc">  -2440.75337060 </i>
    <i name="eentropy">      0.00000000 </i>
    <i name="bandstr">   -409.29996548 </i>
    <i name="atom">   3793.03632354 </i>
    <i name="e_fr_energy">    -32.76800019 </i>
    <i name="e_wo_entrp">    -32.76800019 </i>
    <i name="e_0_energy">    -32.76800019 </i>
   </energy>
  </scstep>
  <scstep>
   <time name="dav">   23.52   23.68</time>
   <time name="total">   76.23   77.51</time>
   <energy>
    <i name="e_fr_energy">    -32.77199307 </i>
    <i name="e_wo_entrp">    -32.77199307 </i>
    <i name="e_0_energy">    -32.77199307 </i>
   </energy>
  </scstep>
  <scstep>
   <time name="dav">   22.83   22.97</time>
   <time name="total">   76.12   76.60</time>
   <energy>
    <i name="e_fr_energy">    -32.76761915 </i>
    <i name="e_wo_entrp">    -32.76761915 </i>
    <i name="e_0_energy">    -32.76761915 </i>
   </energy>
  </scstep>
  <scstep>
   <time name="dav">   29.41   29.61</time>
   <time name="total">   82.78   83.22</time>
   <energy>
    <i name="e_fr_energy">    -32.76783461 </i>
    <i name="e_wo_entrp">    -32.76783461 </i>
    <i name="e_0_energy">    -32.76783461 </i>
   </energy>
  </scstep>
  <scstep>
   <time name="dav">   21.48   21.55</time>
[...]
        <r>  0.0009  0.0035  0.0169  0.0014  0.0000  0.0001  0.0003  0.0001  0.0000 </r>
        <r>  0.0034  0.0018  0.0491  0.0172  0.0002  0.0000  0.0007  0.0001  0.0000 </r>
        <r>  0.0006  0.0134  0.0024  0.0220  0.0001  0.0000  0.0000  0.0001  0.0002 </r>
       </set>
       <set comment="band 30">
        <r>  0.0002  0.0029  0.0007  0.0055  0.0034  0.0098  0.2876  0.0185  0.0182 </r>
        <r>  0.0023  0.0041  0.0042  0.0133  0.0128  0.0079  0.0151  0.0179  0.0331 </r>
        <r>  0.0004  0.0038  0.0034  0.0010  0.0000  0.0000  0.0000  0.0000  0.0000 </r>
        <r>  0.0008  0.0056  0.0017  0.0058  0.0001  0.0001  0.0003  0.0001  0.0002 </r>
        <r>  0.0006  0.0058  0.0056  0.0012  0.0001  0.0001  0.0002  0.0000  0.0000 </r>
        <r>  0.0022  0.0008  0.0214  0.0392  0.0001  0.0002  0.0004  0.0002  0.0001 </r>
        <r>  0.0003  0.0154  0.0053  0.0304  0.0002  0.0000  0.0000  0.0001  0.0003 </r>
        <r>  0.0002  0.0351  0.0024  0.0002  0.0005  0.0001  0.0000  0.0000  0.0000 </r>
        <r>  0.0022  0.0143  0.0280  0.0201  0.0000  0.0000  0.0003  0.0003  0.0002 </r>
        <r>  0.0003  0.0006  0.0076  0.0057  0.0000  0.0001  0.0002  0.0000  0.0000 </r>
       </set>
       <set comment="band 31">
        <r>  0.0000  0.0022  0.0125  0.0009  0.0122  0.0176  0.0000  0.0251  0.0205 </r>
        <r>  0.0001  0.0019  0.0137  0.0015  0.0027  0.0109  0.0002  0.0164  0.0170 </r>
        <r>  0.0000  0.0010  0.0000  0.0039  0.0000  0.0000  0.0000  0.0000  0.0000 </r>
        <r>  0.0000  0.0031  0.0000  0.0067  0.0002  0.0001  0.0000  0.0002  0.0005 </r>
        <r>  0.0010  0.0189  0.0766  0.0013  0.0001  0.0000  0.0005  0.0001  0.0001 </r>
        <r>  0.0000  0.0050  0.0001  0.0165  0.0000  0.0000  0.0000  0.0000  0.0001 </r>
        <r>  0.0011  0.0039  0.0743  0.0147  0.0000  0.0000  0.0005  0.0000  0.0001 </r>
        <r>  0.0007  0.0120  0.0711  0.0002  0.0001  0.0000  0.0005  0.0000  0.0000 </r>
        <r>  0.0000  0.0051  0.0001  0.0160  0.0000  0.0000  0.0000  0.0001  0.0000 </r>
        <r>  0.0006  0.0017  0.0740  0.0119  0.0000  0.0000  0.0005  0.0000  0.0001 </r>
       </set>
       <set comment="band 32">
        <r>  0.0001  0.0001  0.0003  0.0004  0.0524  0.0133  0.0004  0.0146  0.0829 </r>
        <r>  0.0001  0.0001  0.0001  0.0004  0.0737  0.0076  0.0001  0.0401  0.0431 </r>
        <r>  0.0221  0.0011  0.0107  0.0002  0.0000  0.0000  0.0000  0.0000  0.0000 </r>
        <r>  0.0024  0.0010  0.0132  0.0005  0.0001  0.0000  0.0009  0.0000  0.0000 </r>
        <r>  0.0004  0.0013  0.0054  0.0010  0.0000  0.0001  0.0000  0.0004  0.0000 </r>
        <r>  0.0053  0.0049  0.0408  0.0003  0.0000  0.0004  0.0000  0.0001  0.0000 </r>
        <r>  0.0010  0.0018  0.0102  0.0042  0.0000  0.0002  0.0000  0.0003  0.0000 </r>
        <r>  0.0041  0.0014  0.0298  0.0335  0.0001  0.0002  0.0000  0.0003  0.0004 </r>
        <r>  0.0054  0.0219  0.0385  0.0052  0.0005  0.0002  0.0000  0.0001  0.0001 </r>
        <r>  0.0029  0.0219  0.0202  0.0154  0.0003  0.0001  0.0000  0.0004  0.0001 </r>
       </set>
       <set comment="band 33">
        <r>  0.0001  0.0009  0.0017  0.0003  0.0001  0.0260  0.0228  0.0274  0.0153 </r>
        <r>  0.0003  0.0002  0.0003  0.0004  0.0367  0.0849  0.0023  0.1027  0.0443 </r>
        <r>  0.0022  0.0031  0.0002  0.0061  0.0000  0.0000  0.0000  0.0000  0.0000 </r>
        <r>  0.0018  0.0016  0.0003  0.0073  0.0003  0.0001  0.0004  0.0005  0.0012 </r>
        <r>  0.0056  0.0266  0.0243  0.0179  0.0003  0.0002  0.0000  0.0000  0.0000 </r>
        <r>  0.0002  0.0062  0.0033  0.0052  0.0002  0.0002  0.0000  0.0006  0.0005 </r>
        <r>  0.0047  0.0005  0.0322  0.0260  0.0001  0.0001  0.0000  0.0004  0.0006 </r>
        <r>  0.0031  0.0094  0.0123  0.0020  0.0005  0.0003  0.0000  0.0001  0.0001 </r>
        <r>  0.0012  0.0007  0.0088  0.0135  0.0001  0.0001  0.0000  0.0011  0.0007 </r>
        <r>  0.0076  0.0030  0.0344  0.0297  0.0000  0.0002  0.0001  0.0003  0.0004 </r>
       </set>
       <set comment="band 34">
        <r>  0.0002  0.0000  0.0002  0.0001  0.1025  0.1118  0.0017  0.0564  0.0066 </r>
        <r>  0.0000  0.0002  0.0016  0.0007  0.0120  0.0008  0.0144  0.0151  0.0208 </r>
        <r>  0.0132  0.0020  0.0030  0.0026  0.0000  0.0000  0.0000  0.0000  0.0000 </r>
        <r>  0.0105  0.0015  0.0017  0.0011  0.0004  0.0003  0.0020  0.0001  0.0002 </r>
        <r>  0.0049  0.0039  0.0410  0.0064  0.0001  0.0003  0.0000  0.0005  0.0006 </r>
        <r>  0.0015  0.0006  0.0160  0.0052  0.0003  0.0002  0.0000  0.0001  0.0002 </r>
        <r>  0.0043  0.0209  0.0248  0.0060  0.0003  0.0004  0.0000  0.0002  0.0000 </r>
        <r>  0.0049  0.0186  0.0217  0.0226  0.0001  0.0005  0.0001  0.0001  0.0004 </r>
        <r>  0.0037  0.0222  0.0314  0.0025  0.0007  0.0005  0.0001  0.0000  0.0001 </r>
        <r>  0.0017  0.0105  0.0081  0.0017  0.0007  0.0001  0.0000  0.0003  0.0002 </r>
       </set>
       <set comment="band 35">
        <r>  0.0003  0.0005  0.0003  0.0003  0.0085  0.0127  0.0021  0.0377  0.0136 </r>
        <r>  0.0002  0.0005  0.0001  0.0001  0.0142  0.0594  0.0029  0.0061  0.0027 </r>
        <r>  0.0350  0.0034  0.0160  0.0026  0.0000  0.0000  0.0000  0.0000  0.0000 </r>
        <r>  0.0243  0.0029  0.0015  0.0007  0.0001  0.0004  0.0013  0.0001  0.0000 </r>
        <r>  0.0035  0.0144  0.0218  0.0072  0.0002  0.0002  0.0001  0.0001  0.0005 </r>
        <r>  0.0077  0.0429  0.0201  0.0089  0.0010  0.0006  0.0000  0.0001  0.0002 </r>
        <r>  0.0031  0.0001  0.0230  0.0207  0.0006  0.0002  0.0001  0.0002  0.0001 </r>
        <r>  0.0007  0.0119  0.0098  0.0405  0.0000  0.0001  0.0003  0.0003  0.0019 </r>
        <r>  0.0066  0.0364  0.0072  0.0193  0.0011  0.0000  0.0003  0.0001  0.0003 </r>
        <r>  0.0001  0.0205  0.0092  0.0211  0.0015  0.0003  0.0003  0.0001  0.0001 </r>
       </set>
       <set comment="band 36">
        <r>  0.0012  0.0005  0.0005  0.0003  0.0071  0.0511  0.0001  0.1138  0.0216 </r>
        <r>  0.0012  0.0005  0.0007  0.0006  0.0025  0.0409  0.0000  0.0579  0.0082 </r>
        <r>  0.0008  0.0014  0.0003  0.0017  0.0000  0.0000  0.0000  0.0000  0.0000 </r>
        <r>  0.0017  0.0008  0.0001  0.0023  0.0001  0.0000  0.0001  0.0000  0.0004 </r>
        <r>  0.0014  0.0544  0.0016  0.0007  0.0005  0.0001  0.0000  0.0001  0.0004 </r>
        <r>  0.0005  0.0103  0.0009  0.0510  0.0001  0.0001  0.0000  0.0009  0.0013 </r>
        <r>  0.0030  0.0091  0.0043  0.0467  0.0000  0.0000  0.0001  0.0001  0.0007 </r>
        <r>  0.0016  0.0494  0.0012  0.0007  0.0006  0.0002  0.0000  0.0000  0.0002 </r>
        <r>  0.0001  0.0157  0.0001  0.0314  0.0003  0.0003  0.0000  0.0006  0.0012 </r>
        <r>  0.0021  0.0069  0.0033  0.0589  0.0001  0.0000  0.0000  0.0005  0.0011 </r>
       </set>
       <set comment="band 37">
        <r>  0.0005  0.0005  0.0003  0.0011  0.0050  0.0348  0.0001  0.0137  0.0042 </r>
        <r>  0.0007  0.0004  0.0003  0.0012  0.0058  0.0226  0.0001  0.0141  0.0037 </r>
        <r>  0.0003  0.0002  0.0462  0.0000  0.0000  0.0000  0.0000  0.0000  0.0000 </r>
        <r>  0.0925  0.0008  0.0347  0.0003  0.0000  0.0000  0.0012  0.0000  0.0000 </r>
        <r>  0.0023  0.0026  0.0060  0.0661  0.0002  0.0001  0.0012  0.0005  0.0034 </r>
        <r>  0.0016  0.0422  0.0018  0.0137  0.0032  0.0003  0.0005  0.0001  0.0009 </r>
        <r>  0.0021  0.0386  0.0062  0.0279  0.0033  0.0006  0.0012  0.0000  0.0003 </r>
        <r>  0.0004  0.0005  0.0307  0.0050  0.0000  0.0001  0.0004  0.0002  0.0003 </r>
        <r>  0.0002  0.0005  0.0093  0.0003  0.0000  0.0008  0.0001  0.0002  0.0000 </r>
        <r>  0.0004  0.0051  0.0303  0.0011  0.0003  0.0001  0.0004  0.0002  0.0000 </r>
       </set>
       <set comment="band 38">
        <r>  0.0308  0.0003  0.0020  0.0009  0.0050  0.0019  0.0022  0.0053  0.0059 </r>
        <r>  0.0310  0.0003  0.0020  0.0009  0.0049  0.0022  0.0020  0.0042  0.0052 </r>
        <r>  0.0005  0.0785  0.0000  0.0266  0.0000  0.0000  0.0000  0.0000  0.0000 </r>
        <r>  0.0005  0.0108  0.0004  0.0037  0.0015  0.0025  0.0001  0.0008  0.0005 </r>
        <r>  0.0004  0.0013  0.0003  0.0031  0.0014  0.0013  0.0001  0.0003  0.0005 </r>
        <r>  0.0020  0.0086  0.0001  0.0030  0.0006  0.0010  0.0006  0.0003  0.0002 </r>
        <r>  0.0004  0.0034  0.0003  0.0009  0.0008  0.0005  0.0001  0.0010  0.0011 </r>
        <r>  0.0028  0.0016  0.0006  0.0143  0.0087  0.0010  0.0003  0.0005  0.0023 </r>
        <r>  0.0190  0.0788  0.0028  0.0262  0.0047  0.0011  0.0024  0.0003  0.0016 </r>
        <r>  0.0027  0.0087  0.0006  0.0069  0.0058  0.0008  0.0003  0.0008  0.0052 </r>
       </set>
       <set comment="band 39">
        <r>  0.0293  0.0048  0.0014  0.0013  0.0082  0.0090  0.0019  0.0010  0.0069 </r>
        <r>  0.0294  0.0034  0.0014  0.0027  0.0102  0.0005  0.0018  0.0080  0.0032 </r>
        <r>  0.0000  0.0199  0.0000  0.0581  0.0000  0.0000  0.0000  0.0000  0.0000 </r>
        <r>  0.0000  0.0038  0.0000  0.0114  0.0005  0.0008  0.0000  0.0024  0.0015 </r>
        <r>  0.0021  0.0054  0.0001  0.0095  0.0013  0.0007  0.0008  0.0008  0.0009 </r>
        <r>  0.0000  0.0004  0.0000  0.0011  0.0006  0.0003  0.0000  0.0010  0.0017 </r>
        <r>  0.0022  0.0128  0.0001  0.0023  0.0009  0.0008  0.0007  0.0007  0.0013 </r>
        <r>  0.0091  0.0204  0.0005  0.0648  0.0033  0.0004  0.0016  0.0010  0.0038 </r>
        <r>  0.0000  0.0050  0.0000  0.0157  0.0026  0.0002  0.0000  0.0006  0.0079 </r>
        <r>  0.0091  0.0848  0.0005  0.0003  0.0025  0.0009  0.0016  0.0005  0.0045 </r>
       </set>
       <set comment="band 40">
        <r>  0.0200  0.0000  0.0040  0.0014  0.0004  0.0006  0.0030  0.0007  0.0021 </r>
        <r>  0.0200  0.0009  0.0041  0.0006  0.0010  0.0007  0.0028  0.0004  0.0015 </r>
        <r>  0.0012  0.0251  0.0062  0.0086  0.0000  0.0000  0.0000  0.0000  0.0000 </r>
        <r>  0.0012  0.0759  0.0111  0.0252  0.0102  0.0005  0.0014  0.0002  0.0033 </r>
        <r>  0.0021  0.0002  0.0028  0.0037  0.0108  0.0011  0.0004  0.0011  0.0034 </r>
        <r>  0.0259  0.0313  0.0033  0.0104  0.0043  0.0012  0.0014  0.0004  0.0015 </r>
        <r>  0.0022  0.0024  0.0028  0.0016  0.0077  0.0019  0.0004  0.0003  0.0064 </r>
        <r>  0.0002  0.0056  0.0022  0.0025  0.0018  0.0019  0.0008  0.0005  0.0007 </r>
        <r>  0.0056  0.0131  0.0005  0.0042  0.0004  0.0019  0.0007  0.0006  0.0001 </r>
        <r>  0.0003  0.0001  0.0023  0.0078  0.0019  0.0001  0.0007  0.0024  0.0006 </r>
       </set>
       <set comment="band 41">
        <r>  0.0008  0.0032  0.0001  0.0003  0.0038  0.0034  0.0004  0.0025  0.0050 </r>
        <r>  0.0011  0.0017  0.0001  0.0019  0.0041  0.0015  0.0004  0.0034  0.0041 </r>
        <r>  0.0176  0.0026  0.0515  0.0007  0.0000  0.0000  0.0000  0.0000  0.0000 </r>
        <r>  0.0102  0.0068  0.1267  0.0018  0.0012  0.0001  0.0090  0.0000  0.0004 </r>
        <r>  0.0019  0.0002  0.0142  0.0006  0.0012  0.0001  0.0000  0.0057  0.0001 </r>
        <r>  0.0008  0.0077  0.0292  0.0029  0.0021  0.0030  0.0007  0.0010  0.0006 </r>
        <r>  0.0021  0.0002  0.0141  0.0003  0.0003  0.0048  0.0000  0.0012  0.0008 </r>
        <r>  0.0013  0.0005  0.0055  0.0004  0.0002  0.0006  0.0009  0.0036  0.0000 </r>
        <r>  0.0012  0.0017  0.0192  0.0006  0.0003  0.0011  0.0012  0.0004  0.0001 </r>
        <r>  0.0014  0.0004  0.0053  0.0004  0.0000  0.0043  0.0008  0.0001  0.0002 </r>
       </set>
       <set comment="band 42">
        <r>  0.0123  0.0002  0.0032  0.0016  0.0022  0.0048  0.0018  0.0050  0.0008 </r>
        <r>  0.0129  0.0017  0.0034  0.0001  0.0001  0.0065  0.0017  0.0024  0.0027 </r>
        <r>  0.0000  0.0072  0.0000  0.0215  0.0000  0.0000  0.0000  0.0000  0.0000 </r>
        <r>  0.0000  0.0207  0.0000  0.0643  0.0028  0.0004  0.0000  0.0011  0.0088 </r>
        <r>  0.0120  0.0169  0.0012  0.0349  0.0034  0.0001  0.0013  0.0009  0.0059 </r>
        <r>  0.0000  0.0028  0.0000  0.0078  0.0038  0.0001  0.0000  0.0003  0.0118 </r>
        <r>  0.0116  0.0519  0.0012  0.0004  0.0034  0.0008  0.0013  0.0002  0.0061 </r>
        <r>  0.0025  0.0093  0.0009  0.0122  0.0007  0.0008  0.0013  0.0015  0.0010 </r>
        <r>  0.0000  0.0035  0.0000  0.0102  0.0007  0.0006  0.0000  0.0017  0.0020 </r>
        <r>  0.0025  0.0205  0.0012  0.0010  0.0003  0.0015  0.0014  0.0006  0.0014 </r>
       </set>
       <set comment="band 43">
        <r>  0.0411  0.0045  0.0031  0.0040  0.0016  0.0009  0.0024  0.0003  0.0029 </r>
        <r>  0.0421  0.0039  0.0031  0.0048  0.0017  0.0005  0.0024  0.0006  0.0026 </r>
        <r>  0.0005  0.0130  0.0012  0.0046  0.0000  0.0000  0.0000  0.0000  0.0000 </r>
        <r>  0.0004  0.0266  0.0012  0.0085  0.0023  0.0008  0.0007  0.0003  0.0007 </r>
        <r>  0.0000  0.0109  0.0006  0.0014  0.0021  0.0147  0.0008  0.0004  0.0010 </r>
        <r>  0.0032  0.0096  0.0124  0.0034  0.0005  0.0023  0.0032  0.0007  0.0002 </r>
        <r>  0.0000  0.0008  0.0006  0.0117  0.0026  0.0054  0.0008  0.0097  0.0005 </r>
        <r>  0.0007  0.0101  0.0006  0.0028  0.0012  0.0112  0.0005  0.0007  0.0004 </r>
        <r>  0.0012  0.0101  0.0116  0.0033  0.0020  0.0006  0.0051  0.0002  0.0007 </r>
        <r>  0.0006  0.0015  0.0007  0.0114  0.0003  0.0055  0.0005  0.0065  0.0012 </r>
       </set>
       <set comment="band 44">
        <r>  0.0104  0.0046  0.0046  0.0017  0.0018  0.0003  0.0005  0.0002  0.0020 </r>
        <r>  0.0108  0.0041  0.0040  0.0024  0.0019  0.0004  0.0006  0.0002  0.0022 </r>
        <r>  0.0000  0.0020  0.0000  0.0049  0.0000  0.0000  0.0000  0.0000  0.0000 </r>
        <r>  0.0000  0.0021  0.0000  0.0066  0.0004  0.0002  0.0000  0.0005  0.0012 </r>
        <r>  0.0010  0.0018  0.0085  0.0026  0.0007  0.0026  0.0019  0.0027  0.0009 </r>
        <r>  0.0000  0.0018  0.0000  0.0052  0.0006  0.0026  0.0000  0.0075  0.0020 </r>
        <r>  0.0010  0.0030  0.0099  0.0014  0.0004  0.0009  0.0021  0.0038  0.0011 </r>
        <r>  0.0028  0.0018  0.0079  0.0033  0.0002  0.0020  0.0030  0.0017  0.0001 </r>
        <r>  0.0000  0.0013  0.0000  0.0051  0.0001  0.0021  0.0000  0.0056  0.0003 </r>
        <r>  0.0030  0.0046  0.0082  0.0008  0.0000  0.0005  0.0032  0.0033  0.0003 </r>
       </set>
       <set comment="band 45">
        <r>  0.0000  0.0005  0.0000  0.0028  0.0002  0.0007  0.0014  0.0005  0.0006 </r>
        <r>  0.0003  0.0008  0.0002  0.0023  0.0002  0.0008  0.0012  0.0003  0.0003 </r>
        <r>  0.0007  0.0004  0.0024  0.0003  0.0000  0.0000  0.0000  0.0000  0.0000 </r>
        <r>  0.0014  0.0013  0.0033  0.0006  0.0007  0.0002  0.0035  0.0000  0.0002 </r>
        <r>  0.0005  0.0000  0.0028  0.0023  0.0004  0.0004  0.0006  0.0007  0.0000 </r>
        <r>  0.0031  0.0030  0.0066  0.0010  0.0000  0.0001  0.0062  0.0002  0.0000 </r>
        <r>  0.0005  0.0018  0.0018  0.0006  0.0000  0.0004  0.0004  0.0011  0.0004 </r>
        <r>  0.0004  0.0001  0.0018  0.0018  0.0002  0.0000  0.0005  0.0002  0.0002 </r>
        <r>  0.0033  0.0037  0.0020  0.0008  0.0000  0.0006  0.0025  0.0003  0.0000 </r>
        <r>  0.0002  0.0012  0.0010  0.0004  0.0000  0.0002  0.0003  0.0002  0.0004 </r>
       </set>
       <set comment="band 46">
        <r>  0.0095  0.0004  0.0094  0.0008  0.0008  0.0000  0.0002  0.0001  0.0022 </r>
        <r>  0.0093  0.0008  0.0100  0.0005  0.0009  0.0001  0.0001  0.0000  0.0020 </r>
        <r>  0.0004  0.0056  0.0052  0.0021  0.0000  0.0000  0.0000  0.0000  0.0000 </r>
        <r>  0.0004  0.0095  0.0088  0.0030  0.0006  0.0047  0.0011  0.0017  0.0002 </r>
        <r>  0.0003  0.0022  0.0024  0.0008  0.0018  0.0023  0.0001  0.0002  0.0010 </r>
        <r>  0.0014  0.0010  0.0040  0.0003  0.0033  0.0061  0.0032  0.0021  0.0010 </r>
        <r>  0.0004  0.0009  0.0025  0.0024  0.0008  0.0001  0.0001  0.0025  0.0021 </r>
        <r>  0.0004  0.0021  0.0059  0.0010  0.0027  0.0058  0.0001  0.0005  0.0007 </r>
        <r>  0.0009  0.0016  0.0078  0.0005  0.0040  0.0064  0.0023  0.0023  0.0014 </r>
        <r>  0.0005  0.0003  0.0065  0.0027  0.0004  0.0004  0.0002  0.0057  0.0029 </r>
       </set>
       <set comment="band 47">
        <r>  0.0027  0.0006  0.0001  0.0014  0.0002  0.0000  0.0028  0.0000  0.0002 </r>
        <r>  0.0021  0.0010  0.0001  0.0008  0.0001  0.0000  0.0028  0.0000  0.0002 </r>
        <r>  0.0000  0.0010  0.0000  0.0021  0.0000  0.0000  0.0000  0.0000  0.0000 </r>
        <r>  0.0000  0.0006  0.0000  0.0022  0.0002  0.0001  0.0000  0.0002  0.0004 </r>
        <r>  0.0028  0.0008  0.0042  0.0028  0.0001  0.0000  0.0044  0.0000  0.0003 </r>
        <r>  0.0000  0.0003  0.0000  0.0010  0.0001  0.0002  0.0000  0.0004  0.0005 </r>
        <r>  0.0027  0.0028  0.0038  0.0005  0.0001  0.0000  0.0044  0.0000  0.0002 </r>
        <r>  0.0020  0.0002  0.0012  0.0034  0.0000  0.0001  0.0023  0.0003  0.0002 </r>
        <r>  0.0000  0.0002  0.0000  0.0009  0.0000  0.0000  0.0000  0.0000  0.0000 </r>
        <r>  0.0020  0.0026  0.0010  0.0013  0.0002  0.0001  0.0022  0.0002  0.0001 </r>
       </set>
       <set comment="band 48">
        <r>  0.0013  0.0006  0.0073  0.0002  0.0002  0.0001  0.0009  0.0002  0.0007 </r>
        <r>  0.0020  0.0005  0.0074  0.0003  0.0009  0.0003  0.0008  0.0000  0.0000 </r>
        <r>  0.0018  0.0062  0.0153  0.0020  0.0000  0.0000  0.0000  0.0000  0.0000 </r>
        <r>  0.0024  0.0007  0.0186  0.0002  0.0010  0.0035  0.0004  0.0012  0.0003 </r>
        <r>  0.0006  0.0004  0.0005  0.0013  0.0021  0.0015  0.0020  0.0012  0.0003 </r>
        <r>  0.0009  0.0002  0.0015  0.0001  0.0015  0.0009  0.0007  0.0003  0.0005 </r>
        <r>  0.0005  0.0010  0.0005  0.0008  0.0007  0.0004  0.0019  0.0023  0.0017 </r>
        <r>  0.0001  0.0009  0.0005  0.0019  0.0033  0.0020  0.0002  0.0016  0.0012 </r>
        <r>  0.0003  0.0025  0.0038  0.0007  0.0048  0.0026  0.0003  0.0009  0.0017 </r>
        <r>  0.0000  0.0006  0.0004  0.0022  0.0003  0.0011  0.0002  0.0025  0.0043 </r>
       </set>
      </set>
     </set>
    </set>
   </array>
  </projected>
 </calculation>
 <structure name="finalpos" >
  <crystal>
   <varray name="basis" >
    <v>       6.80994069       0.00000065      -0.00000000 </v>
    <v>       3.40496931       5.89758161      -0.00000000 </v>
    <v>       0.00000000       0.00000000      21.46382743 </v>
   </varray>
   <i name="volume">    862.03407409 </i>
   <varray name="rec_basis" >
    <v>       0.14684417      -0.08478049       0.00000000 </v>
    <v>      -0.00000002       0.16956104      -0.00000000 </v>
    <v>       0.00000000       0.00000000       0.04659001 </v>
   </varray>
  </crystal>
  <varray name="positions" >
   <v>       0.33333300       0.33333300       0.49959971 </v>
   <v>       0.66666700       0.66666700       0.49976022 </v>
   <v>      -0.00000000      -0.00000000       0.43983777 </v>
   <v>       0.00000000       0.00000000       0.55178400 </v>
   <v>       0.62635700       0.00042000       0.57375200 </v>
   <v>       0.00042000       0.37322400       0.57375200 </v>
   <v>       0.37322400       0.62635700       0.57375200 </v>
   <v>       0.37364300       0.99958000       0.42624800 </v>
   <v>       0.99958000       0.62677600       0.42624800 </v>
   <v>       0.62677600       0.37364300       0.42624800 </v>
  </varray>
  <varray name="selective"  type="logical" >
   <v type="logical" >  T  T  T </v>
   <v type="logical" >  T  T  T </v>
   <v type="logical" >  T  T  T </v>
   <v type="logical" >  F  F  F </v>
   <v type="logical" >  F  F  F </v>
   <v type="logical" >  F  F  F </v>
   <v type="logical" >  F  F  F </v>
   <v type="logical" >  F  F  F </v>
   <v type="logical" >  F  F  F </v>
   <v type="logical" >  F  F  F </v>
  </varray>
  <nose>
   <v>      -3.00000000       0.00000000       0.00010000       0.00010000 </v>
  </nose>
 </structure>
</modeling>
