unknown system                          
           1
     6.907777   -0.000000    0.000000
     3.453888    5.982310    0.000000
     0.000000    0.000000   23.444588
   Ni   P    Ge   Te
   2   1   1   6
Direct configuration=     1
   0.33333300  0.33333300  0.49992500
   0.66666700  0.66666700  0.50007500
   0.00000000  0.00000000  0.44821600
   0.00000000  0.00000000  0.55178400
   0.62635700  0.00042000  0.57375200
   0.00042000  0.37322400  0.57375200
   0.37322400  0.62635700  0.57375200
   0.37364300  0.99958000  0.42624800
   0.99958000  0.62677600  0.42624800
   0.62677600  0.37364300  0.42624800
unknown system                          
           1
     6.641778    0.000000    0.000000
     3.320888    5.751948   -0.000000
     0.000000    0.000000   22.646074
   Ni   P    Ge   Te
   2   1   1   6
Direct configuration=     2
   0.33333300  0.33333300  0.49996268
   0.66666700  0.66666700  0.50010028
  -0.00000000 -0.00000000  0.44807956
   0.00000000  0.00000000  0.55178400
   0.62635700  0.00042000  0.57375200
   0.00042000  0.37322400  0.57375200
   0.37322400  0.62635700  0.57375200
   0.37364300  0.99958000  0.42624800
   0.99958000  0.62677600  0.42624800
   0.62677600  0.37364300  0.42624800
unknown system                          
           1
     6.714251    0.000000    0.000000
     3.357125    5.814712   -0.000000
     0.000000    0.000000   22.863635
   Ni   P    Ge   Te
   2   1   1   6
Direct configuration=     3
   0.33333300  0.33333300  0.49995205
   0.66666700  0.66666700  0.50009315
  -0.00000000 -0.00000000  0.44811804
   0.00000000  0.00000000  0.55178400
   0.62635700  0.00042000  0.57375200
   0.00042000  0.37322400  0.57375200
   0.37322400  0.62635700  0.57375200
   0.37364300  0.99958000  0.42624800
   0.99958000  0.62677600  0.42624800
   0.62677600  0.37364300  0.42624800
unknown system                          
           1
     6.732797    0.000000   -0.000000
     3.366398    5.830773   -0.000000
     0.000000    0.000000   22.564666
   Ni   P    Ge   Te
   2   1   1   6
Direct configuration=     4
   0.33333300  0.33333300  0.49989506
   0.66666700  0.66666700  0.50002757
  -0.00000000 -0.00000000  0.44710454
   0.00000000  0.00000000  0.55178400
   0.62635700  0.00042000  0.57375200
   0.00042000  0.37322400  0.57375200
   0.37322400  0.62635700  0.57375200
   0.37364300  0.99958000  0.42624800
   0.99958000  0.62677600  0.42624800
   0.62677600  0.37364300  0.42624800
unknown system                          
           1
     6.788437    0.000001   -0.000000
     3.394217    5.878958   -0.000000
     0.000000    0.000000   21.667758
   Ni   P    Ge   Te
   2   1   1   6
Direct configuration=     5
   0.33333300  0.33333300  0.49972182
   0.66666700  0.66666700  0.49982823
  -0.00000000 -0.00000000  0.44402376
   0.00000000  0.00000000  0.55178400
   0.62635700  0.00042000  0.57375200
   0.00042000  0.37322400  0.57375200
   0.37322400  0.62635700  0.57375200
   0.37364300  0.99958000  0.42624800
   0.99958000  0.62677600  0.42624800
   0.62677600  0.37364300  0.42624800
unknown system                          
           1
     6.801159    0.000001   -0.000000
     3.400578    5.889976   -0.000000
     0.000000    0.000000   21.462674
   Ni   P    Ge   Te
   2   1   1   6
Direct configuration=     6
   0.33333300  0.33333300  0.49968056
   0.66666700  0.66666700  0.49978076
  -0.00000000 -0.00000000  0.44329016
   0.00000000  0.00000000  0.55178400
   0.62635700  0.00042000  0.57375200
   0.00042000  0.37322400  0.57375200
   0.37322400  0.62635700  0.57375200
   0.37364300  0.99958000  0.42624800
   0.99958000  0.62677600  0.42624800
   0.62677600  0.37364300  0.42624800
unknown system                          
           1
     6.843258    0.000001   -0.000000
     3.421628    5.926435   -0.000000
    -0.000000    0.000000   21.396552
   Ni   P    Ge   Te
   2   1   1   6
Direct configuration=     7
   0.33333300  0.33333300  0.49956713
   0.66666700  0.66666700  0.49969749
   0.00000000 -0.00000000  0.44004179
   0.00000000  0.00000000  0.55178400
   0.62635700  0.00042000  0.57375200
   0.00042000  0.37322400  0.57375200
   0.37322400  0.62635700  0.57375200
   0.37364300  0.99958000  0.42624800
   0.99958000  0.62677600  0.42624800
   0.62677600  0.37364300  0.42624800
unknown system                          
           1
     6.838910    0.000001   -0.000000
     3.419454    5.922670   -0.000000
    -0.000000    0.000000   21.403381
   Ni   P    Ge   Te
   2   1   1   6
Direct configuration=     8
   0.33333300  0.33333300  0.49957888
   0.66666700  0.66666700  0.49970612
   0.00000000 -0.00000000  0.44037832
   0.00000000  0.00000000  0.55178400
   0.62635700  0.00042000  0.57375200
   0.00042000  0.37322400  0.57375200
   0.37322400  0.62635700  0.57375200
   0.37364300  0.99958000  0.42624800
   0.99958000  0.62677600  0.42624800
   0.62677600  0.37364300  0.42624800
unknown system                          
           1
     6.809901    0.000001   -0.000000
     3.404950    5.897547   -0.000000
     0.000000    0.000000   21.463910
   Ni   P    Ge   Te
   2   1   1   6
Direct configuration=     9
   0.33333300  0.33333300  0.49959974
   0.66666700  0.66666700  0.49976029
  -0.00000000 -0.00000000  0.43983704
   0.00000000  0.00000000  0.55178400
   0.62635700  0.00042000  0.57375200
   0.00042000  0.37322400  0.57375200
   0.37322400  0.62635700  0.57375200
   0.37364300  0.99958000  0.42624800
   0.99958000  0.62677600  0.42624800
   0.62677600  0.37364300  0.42624800
unknown system                          
           1
     6.810646    0.000001   -0.000000
     3.405322    5.898193   -0.000000
     0.000000    0.000000   21.462356
   Ni   P    Ge   Te
   2   1   1   6
Direct configuration=    10
   0.33333300  0.33333300  0.49959921
   0.66666700  0.66666700  0.49975891
  -0.00000000 -0.00000000  0.43985090
   0.00000000  0.00000000  0.55178400
   0.62635700  0.00042000  0.57375200
   0.00042000  0.37322400  0.57375200
   0.37322400  0.62635700  0.57375200
   0.37364300  0.99958000  0.42624800
   0.99958000  0.62677600  0.42624800
   0.62677600  0.37364300  0.42624800
unknown system                          
           1
     6.809941    0.000001   -0.000000
     3.404969    5.897582   -0.000000
     0.000000    0.000000   21.463827
   Ni   P    Ge   Te
   2   1   1   6
Direct configuration=    11
   0.33333300  0.33333300  0.49959971
   0.66666700  0.66666700  0.49976022
  -0.00000000 -0.00000000  0.43983777
   0.00000000  0.00000000  0.55178400
   0.62635700  0.00042000  0.57375200
   0.00042000  0.37322400  0.57375200
   0.37322400  0.62635700  0.57375200
   0.37364300  0.99958000  0.42624800
   0.99958000  0.62677600  0.42624800
   0.62677600  0.37364300  0.42624800
