 vasp.5.4.4.18Apr17-6-g9f103f2a35 (build May  1 2020 15:48:39) complex           
 executed on             LinuxGNU date 2020.07.08  21:22:45
 running on   16 total cores
 distrk:  each k-point on   16 cores,    1 groups
 distr:  one band on NCORES_PER_BAND=   1 cores,   16 groups


--------------------------------------------------------------------------------------------------------


 INCAR:
 POTCAR:   PAW_PBE Fe 06Sep2000                   
 POTCAR:   PAW_PBE Ge 05Jan2001                   
 POTCAR:    PAW_PBE P 17Jan2003                   
 POTCAR:    PAW_PBE S 17Jan2003                   

 ----------------------------------------------------------------------------- 
|                                                                             |
|           W    W    AA    RRRRR   N    N  II  N    N   GGGG   !!!           |
|           W    W   A  A   R    R  NN   N  II  NN   N  G    G  !!!           |
|           W    W  A    A  R    R  N N  N  II  N N  N  G       !!!           |
|           W WW W  AAAAAA  RRRRR   N  N N  II  N  N N  G  GGG   !            |
|           WW  WW  A    A  R   R   N   NN  II  N   NN  G    G                |
|           W    W  A    A  R    R  N    N  II  N    N   GGGG   !!!           |
|                                                                             |
|      For optimal performance we recommend to set                            |
|        NCORE= 4 - approx SQRT( number of cores)                             |
|      NCORE specifies how many cores store one orbital (NPAR=cpu/NCORE).     |
|      This setting can  greatly improve the performance of VASP for DFT.     |
|      The default,   NCORE=1            might be grossly inefficient         |
|      on modern multi-core architectures or massively parallel machines.     |
|      Do your own testing !!!!                                               |
|      Unfortunately you need to use the default for GW and RPA calculations. |
|      (for HF NCORE is supported but not extensively tested yet)             |
|                                                                             |
 ----------------------------------------------------------------------------- 


 ----------------------------------------------------------------------------- 
|                                                                             |
|  ADVICE TO THIS USER RUNNING 'VASP/VAMP'   (HEAR YOUR MASTER'S VOICE ...):  |
|                                                                             |
|      You have switched on vdW-DFT.                                          |
|      This routine was written and supplied by Jiri Klimes.                  |
|      We recommed that you carefully read and cite the following             |
|      publication                                                            |
|      J. Klimes, D.R. Bowler, A. Michelides                                  |
|        J. Phys.: Cond Matt. 22 022201 (2010)                                |
|      J. Klimes, D.R. Bowler, A. Michelides                                  |
|        Phys. Rev. B. 83, 195131 (2011)                                      |
|      and references therein.                                                |
|                                                                             |
 ----------------------------------------------------------------------------- 

 POTCAR:   PAW_PBE Fe 06Sep2000                   
   VRHFIN =Fe:  d7 s1                                                           
   LEXCH  = PE                                                                  
   EATOM  =   594.4687 eV,   43.6922 Ry                                         
                                                                                
   TITEL  = PAW_PBE Fe 06Sep2000                                                
   LULTRA =        F    use ultrasoft PP ?                                      
   IUNSCR =        1    unscreen: 0-lin 1-nonlin 2-no                           
   RPACOR =    2.000    partial core radius                                     
   POMASS =   55.847; ZVAL   =    8.000    mass and valenz                      
   RCORE  =    2.300    outmost cutoff radius                                   
   RWIGS  =    2.460; RWIGS  =    1.302    wigner-seitz radius (au A)           
   ENMAX  =  267.883; ENMIN  =  200.912 eV                                      
   RCLOC  =    1.701    cutoff for local pot                                    
   LCOR   =        T    correct aug charges                                     
   LPAW   =        T    paw PP                                                  
   EAUG   =  511.368                                                            
   DEXC   =    -.022                                                            
   RMAX   =    2.817    core radius for proj-oper                               
   RAUG   =    1.300    factor for augmentation sphere                          
   RDEP   =    2.442    radius for radial grids                                 
   QCUT   =   -4.437; QGAM   =    8.874    optimization parameters              
                                                                                
   Description                                                                  
     l     E      TYP  RCUT    TYP  RCUT                                        
     2   .000     23  2.300                                                     
     2   .000     23  2.300                                                     
     0   .000     23  2.300                                                     
     0   .000     23  2.300                                                     
     1  -.200     23  2.300                                                     
     1   .000     23  2.300                                                     
     3   .000      7   .000                                                     
  local pseudopotential read in
  partial core-charges read in
  atomic valenz-charges read in
  non local Contribution for L=           2  read in
    real space projection operators read in
  non local Contribution for L=           2  read in
    real space projection operators read in
  non local Contribution for L=           0  read in
    real space projection operators read in
  non local Contribution for L=           0  read in
    real space projection operators read in
  non local Contribution for L=           1  read in
    real space projection operators read in
  non local Contribution for L=           1  read in
    real space projection operators read in
    PAW grid and wavefunctions read in

   number of l-projection  operators is LMAX  =           6
   number of lm-projection operators is LMMAX =          18

 POTCAR:   PAW_PBE Ge 05Jan2001                   
   VRHFIN =Ge: s2p2                                                             
   LEXCH  = PE                                                                  
   EATOM  =   104.9960 eV,    7.7170 Ry                                         
                                                                                
   TITEL  = PAW_PBE Ge 05Jan2001                                                
   LULTRA =        F    use ultrasoft PP ?                                      
   IUNSCR =        1    unscreen: 0-lin 1-nonlin 2-no                           
   RPACOR =    2.170    partial core radius                                     
   POMASS =   72.610; ZVAL   =    4.000    mass and valenz                      
   RCORE  =    2.300    outmost cutoff radius                                   
   RWIGS  =    2.300; RWIGS  =    1.217    wigner-seitz radius (au A)           
   ENMAX  =  173.807; ENMIN  =  130.355 eV                                      
   ICORE  =        3    local potential                                         
   LCOR   =        T    correct aug charges                                     
   LPAW   =        T    paw PP                                                  
   EAUG   =  385.843                                                            
   DEXC   =    -.138                                                            
   RMAX   =    3.497    core radius for proj-oper                               
   RAUG   =    1.300    factor for augmentation sphere                          
   RDEP   =    2.318    radius for radial grids                                 
   QCUT   =   -3.574; QGAM   =    7.148    optimization parameters              
                                                                                
   Description                                                                  
     l     E      TYP  RCUT    TYP  RCUT                                        
     0   .000     23  2.300                                                     
     0   .000     23  2.300                                                     
     1   .000     23  2.300                                                     
     1   .000     23  2.300                                                     
     2   .000     23  2.300                                                     
     3  -.100      7  2.300                                                     
  local pseudopotential read in
  partial core-charges read in
  atomic valenz-charges read in
  non local Contribution for L=           0  read in
    real space projection operators read in
  non local Contribution for L=           0  read in
    real space projection operators read in
  non local Contribution for L=           1  read in
    real space projection operators read in
  non local Contribution for L=           1  read in
    real space projection operators read in
  non local Contribution for L=           2  read in
    real space projection operators read in
    PAW grid and wavefunctions read in

   number of l-projection  operators is LMAX  =           5
   number of lm-projection operators is LMMAX =          13

 POTCAR:    PAW_PBE P 17Jan2003                   
   VRHFIN =P : s2p3                                                             
   LEXCH  = PE                                                                  
   EATOM  =   176.0430 eV,   12.9388 Ry                                         
                                                                                
   TITEL  = PAW_PBE P 17Jan2003                                                 
   LULTRA =        F    use ultrasoft PP ?                                      
   IUNSCR =        1    unscreen: 0-lin 1-nonlin 2-no                           
   RPACOR =    1.500    partial core radius                                     
   POMASS =   30.974; ZVAL   =    5.000    mass and valenz                      
   RCORE  =    1.900    outmost cutoff radius                                   
   RWIGS  =    2.330; RWIGS  =    1.233    wigner-seitz radius (au A)           
   ENMAX  =  270.000; ENMIN  =  191.280 eV                                      
   ICORE  =        2    local potential                                         
   LCOR   =        T    correct aug charges                                     
   LPAW   =        T    paw PP                                                  
   EAUG   =  342.924                                                            
   DEXC   =    -.002                                                            
   RMAX   =    2.887    core radius for proj-oper                               
   RAUG   =    1.300    factor for augmentation sphere                          
   RDEP   =    1.931    radius for radial grids                                 
   QCUT   =   -4.330; QGAM   =    8.659    optimization parameters              
                                                                                
   Description                                                                  
     l     E      TYP  RCUT    TYP  RCUT                                        
     0   .000     23  1.900                                                     
     0   .000     23  1.900                                                     
     1   .000     23  1.900                                                     
     1   .000     23  1.900                                                     
     2   .000     23  1.900                                                     
  local pseudopotential read in
  partial core-charges read in
  atomic valenz-charges read in
  non local Contribution for L=           0  read in
    real space projection operators read in
  non local Contribution for L=           0  read in
    real space projection operators read in
  non local Contribution for L=           1  read in
    real space projection operators read in
  non local Contribution for L=           1  read in
    real space projection operators read in
    PAW grid and wavefunctions read in

   number of l-projection  operators is LMAX  =           4
   number of lm-projection operators is LMMAX =           8

 POTCAR:    PAW_PBE S 17Jan2003                   
   VRHFIN =S : s2p4                                                             
   LEXCH  = PE                                                                  
   EATOM  =   276.8230 eV,   20.3459 Ry                                         
                                                                                
   TITEL  = PAW_PBE S 17Jan2003                                                 
   LULTRA =        F    use ultrasoft PP ?                                      
   IUNSCR =        1    unscreen: 0-lin 1-nonlin 2-no                           
   RPACOR =    1.500    partial core radius                                     
   POMASS =   32.066; ZVAL   =    6.000    mass and valenz                      
   RCORE  =    1.900    outmost cutoff radius                                   
   RWIGS  =    2.200; RWIGS  =    1.164    wigner-seitz radius (au A)           
   ENMAX  =  280.000; ENMIN  =  194.016 eV                                      
   ICORE  =        2    local potential                                         
   LCOR   =        T    correct aug charges                                     
   LPAW   =        T    paw PP                                                  
   EAUG   =  335.092                                                            
   DEXC   =     .000                                                            
   RMAX   =    2.867    core radius for proj-oper                               
   RAUG   =    1.300    factor for augmentation sphere                          
   RDEP   =    1.954    radius for radial grids                                 
   QCUT   =   -4.360; QGAM   =    8.721    optimization parameters              
                                                                                
   Description                                                                  
     l     E      TYP  RCUT    TYP  RCUT                                        
     0   .000     23  1.900                                                     
     0   .000     23  1.900                                                     
     1   .000     23  1.900                                                     
     1   .000     23  1.900                                                     
     2   .000     23  1.900                                                     
  local pseudopotential read in
  partial core-charges read in
  atomic valenz-charges read in
  non local Contribution for L=           0  read in
    real space projection operators read in
  non local Contribution for L=           0  read in
    real space projection operators read in
  non local Contribution for L=           1  read in
    real space projection operators read in
  non local Contribution for L=           1  read in
    real space projection operators read in
    PAW grid and wavefunctions read in

   number of l-projection  operators is LMAX  =           4
   number of lm-projection operators is LMMAX =           8

 Optimization of the real space projectors (new method)

 maximal supplied QI-value         = 16.25
 optimisation between [QCUT,QGAM] = [ 11.54, 23.24] = [ 37.28,151.24] Ry 
 Optimized for a Real-space Cutoff    1.53 Angstroem

   l    n(q)    QCUT    max X(q) W(low)/X(q) W(high)/X(q)  e(spline) 
   2     10    11.539     4.378    0.86E-05    0.15E-04    0.46E-07
   2     10    11.539    23.237    0.11E-03    0.14E-03    0.22E-06
   0     11    11.539    17.641    0.19E-04    0.14E-05    0.18E-07
   0     11    11.539    50.908    0.43E-04    0.16E-04    0.30E-06
   1     10    11.539     6.148    0.11E-04    0.38E-05    0.26E-07
   1     10    11.539     8.345    0.44E-04    0.25E-04    0.11E-06
 Optimization of the real space projectors (new method)

 maximal supplied QI-value         = 16.25
 optimisation between [QCUT,QGAM] = [ 11.54, 23.24] = [ 37.28,151.24] Ry 
 Optimized for a Real-space Cutoff    1.28 Angstroem

   l    n(q)    QCUT    max X(q) W(low)/X(q) W(high)/X(q)  e(spline) 
   0      9    11.539     8.651    0.22E-04    0.16E-04    0.10E-07
   0      9    11.539    33.192    0.11E-03    0.16E-03    0.65E-07
   1      8    11.539     5.899    0.37E-04    0.28E-04    0.43E-07
   1      8    11.539    27.289    0.22E-03    0.28E-04    0.14E-06
   2      8    11.539     4.673    0.11E-03    0.18E-03    0.58E-07
 Optimization of the real space projectors (new method)

 maximal supplied QI-value         = 19.84
 optimisation between [QCUT,QGAM] = [ 11.51, 23.22] = [ 37.09,150.92] Ry 
 Optimized for a Real-space Cutoff    1.21 Angstroem

   l    n(q)    QCUT    max X(q) W(low)/X(q) W(high)/X(q)  e(spline) 
   0      8    11.508     6.651    0.19E-04    0.31E-05    0.49E-08
   0      8    11.508    90.285    0.95E-04    0.17E-03    0.51E-07
   1      8    11.508     4.328    0.14E-04    0.32E-04    0.22E-07
   1      8    11.508    54.583    0.16E-03    0.71E-04    0.89E-07
 Optimization of the real space projectors (new method)

 maximal supplied QI-value         = 19.84
 optimisation between [QCUT,QGAM] = [ 11.51, 23.22] = [ 37.09,150.92] Ry 
 Optimized for a Real-space Cutoff    1.21 Angstroem

   l    n(q)    QCUT    max X(q) W(low)/X(q) W(high)/X(q)  e(spline) 
   0      8    11.508     5.487    0.18E-04    0.22E-05    0.47E-08
   0      8    11.508    85.627    0.96E-04    0.18E-03    0.54E-07
   1      8    11.508     3.530    0.17E-04    0.28E-04    0.21E-07
   1      8    11.508    42.714    0.18E-03    0.63E-04    0.92E-07

 ----------------------------------------------------------------------------- 
|                                                                             |
|  ADVICE TO THIS USER RUNNING 'VASP/VAMP'   (HEAR YOUR MASTER'S VOICE ...):  |
|                                                                             |
|      You enforced a specific xc-type in the INCAR file,                     |
|      a different type was found on the POTCAR file                          |
|          I HOPE YOU KNOW, WHAT YOU ARE  DOING                               |
|                                                                             |
 ----------------------------------------------------------------------------- 

 PAW_PBE Fe 06Sep2000                   :
 energy of atom  1       EATOM= -594.4687
 kinetic energy error for atom=    0.0026 (will be added to EATOM!!)
 PAW_PBE Ge 05Jan2001                   :
 energy of atom  2       EATOM= -104.9960
 kinetic energy error for atom=    0.0002 (will be added to EATOM!!)
  PAW_PBE P 17Jan2003                   :
 energy of atom  3       EATOM= -176.0430
 kinetic energy error for atom=    0.0011 (will be added to EATOM!!)
  PAW_PBE S 17Jan2003                   :
 energy of atom  4       EATOM= -276.8230
 kinetic energy error for atom=    0.0016 (will be added to EATOM!!)


 POSCAR: Fe2 Ge P S6                             
  positions in direct lattice
  velocities in cartesian coordinates
  No initial velocities read in
 exchange correlation table for  LEXCH =       42
   RHO(1)=    0.500       N(1)  =     2000
   RHO(2)=  100.500       N(2)  =     4000



--------------------------------------------------------------------------------------------------------


 ion  position               nearest neighbor table
   1  0.333  0.333  0.500-   6 2.78   5 2.78   7 2.78   8 2.78  10 2.78   9 2.78
   2  0.667  0.667  0.500-   9 2.78   8 2.78  10 2.78   5 2.78   7 2.78   6 2.78
   3  0.000  0.000  0.448-   4 2.43   8 2.63  10 2.63   9 2.63
   4  0.000  0.000  0.552-   3 2.43   5 2.63   7 2.63   6 2.63
   5  0.626  0.000  0.574-   4 2.63   1 2.78   2 2.78
   6  0.000  0.373  0.574-   4 2.63   1 2.78   2 2.78
   7  0.373  0.626  0.574-   4 2.63   1 2.78   2 2.78
   8  0.374  1.000  0.426-   3 2.63   2 2.78   1 2.78
   9  1.000  0.627  0.426-   3 2.63   2 2.78   1 2.78
  10  0.627  0.374  0.426-   3 2.63   2 2.78   1 2.78

  LATTYP: Found a hexagonal cell.
 ALAT       =     6.9077769333
 C/A-ratio  =     3.3939410937
  
  Lattice vectors:
  
 A1 = (   3.4538890000,  -5.9823100000,   0.0000000000)
 A2 = (  -6.9077770000,   0.0000000000,   0.0000000000)
 A3 = (   0.0000000000,   0.0000000000, -23.4445880000)


Analysis of symmetry for initial positions (statically):
=====================================================================
 Subroutine PRICEL returns:
 Original cell was already a primitive cell.
 

 Routine SETGRP: Setting up the symmetry group for a 
 hexagonal supercell.


 Subroutine GETGRP returns: Found  3 space group operations
 (whereof  3 operations were pure point group operations)
 out of a pool of 24 trial point group operations.


The static configuration has the point symmetry C_3 .


Analysis of symmetry for dynamics (positions and initial velocities):
=====================================================================
 Subroutine PRICEL returns:
 Original cell was already a primitive cell.
 

 Routine SETGRP: Setting up the symmetry group for a 
 hexagonal supercell.


 Subroutine GETGRP returns: Found  3 space group operations
 (whereof  3 operations were pure point group operations)
 out of a pool of 24 trial point group operations.


The dynamic configuration has the point symmetry C_3 .


Analysis of constrained symmetry for selective dynamics:
=====================================================================
 Subroutine PRICEL returns:
 Original cell was already a primitive cell.
 

 Routine SETGRP: Setting up the symmetry group for a 
 hexagonal supercell.


 Subroutine GETGRP returns: Found  3 space group operations
 (whereof  3 operations were pure point group operations)
 out of a pool of 24 trial point group operations.


The constrained configuration has the point symmetry C_3 .


Analysis of structural, dynamic, and magnetic symmetry:
=====================================================================
 Subroutine PRICEL returns:
 Original cell was already a primitive cell.
 

 Routine SETGRP: Setting up the symmetry group for a 
 hexagonal supercell.


 Subroutine GETGRP returns: Found  3 space group operations
 (whereof  3 operations were pure point group operations)
 out of a pool of 24 trial point group operations.


The magnetic configuration has the point symmetry C_3 .


 Subroutine INISYM returns: Found  3 space group operations
 (whereof  3 operations are pure point group operations),
 and found     1 'primitive' translations



 KPOINTS: Kpoints from vasprun.xml                

Automatic generation of k-mesh.
Space group operators:
 irot       det(A)        alpha          n_x          n_y          n_z        tau_x        tau_y        tau_z
    1     1.000000     0.000000     1.000000     0.000000     0.000000     0.000000     0.000000     0.000000
    2     1.000000   120.000000     0.000000     0.000000     1.000000     0.000000     0.000000     0.000000
    3     1.000000   120.000000     0.000000     0.000000    -1.000000     0.000000     0.000000     0.000000
 
 Subroutine IBZKPT returns following result:
 ===========================================
 
 Found      5 irreducible k-points:
 
 Following reciprocal coordinates:
            Coordinates               Weight
  0.000000  0.000000  0.000000      1.000000
  0.200000  0.000000  0.000000      6.000000
  0.400000  0.000000  0.000000      6.000000
  0.400000  0.200000  0.000000      6.000000
 -0.400000  0.200000  0.000000      6.000000
 
 Following cartesian coordinates:
            Coordinates               Weight
  0.000000  0.000000  0.000000      1.000000
  0.028953 -0.016716  0.000000      6.000000
  0.057906 -0.033432  0.000000      6.000000
  0.057906  0.000000  0.000000      6.000000
 -0.057906  0.066864  0.000000      6.000000
 
 TETIRR: Found     15 inequivalent tetrahedra from      150


--------------------------------------------------------------------------------------------------------




 Dimension of arrays:
   k-points           NKPTS =      5   k-points in BZ     NKDIM =      5   number of bands    NBANDS=     48
   number of dos      NEDOS =    301   number of ions     NIONS =     10
   non local maximal  LDIM  =      6   non local SUM 2l+1 LMDIM =     18
   total plane-waves  NPLWV = 524880
   max r-space proj   IRMAX =   8238   max aug-charges    IRDMAX=  29641
   dimension x,y,z NGX =    54 NGY =   54 NGZ =  180
   dimension x,y,z NGXF=   108 NGYF=  108 NGZF=  360
   support grid    NGXF=   108 NGYF=  108 NGZF=  360
   ions per type =               2   1   1   6
   NGX,Y,Z   is equivalent  to a cutoff of  13.00, 13.00, 12.76 a.u.
   NGXF,Y,Z  is equivalent  to a cutoff of  25.99, 25.99, 25.53 a.u.

 SYSTEM =  unknown system                          
 POSCAR =  Fe2 Ge P S6                             

 Startparameter for this run:
   NWRITE =      2    write-flag & timer
   PREC   = accura    normal or accurate (medium, high low for compatibility)
   ISTART =      0    job   : 0-new  1-cont  2-samecut
   ICHARG =      2    charge: 1-file 2-atom 10-const
   ISPIN  =      2    spin polarized calculation?
   LNONCOLLINEAR =      F non collinear calculations
   LSORBIT =      F    spin-orbit coupling
   INIWAV =      1    electr: 0-lowe 1-rand  2-diag
   LASPH  =      F    aspherical Exc in radial PAW
   METAGGA=      F    non-selfconsistent MetaGGA calc.

 Electronic Relaxation 1
   ENCUT  =  520.0 eV  38.22 Ry    6.18 a.u.  12.84 12.84 43.59*2*pi/ulx,y,z
   ENINI  =  520.0     initial cutoff
   ENAUG  =  511.4 eV  augmentation charge cutoff
   NELM   =    400;   NELMIN=  2; NELMDL=  0     # of ELM steps 
   EDIFF  = 0.1E-03   stopping-criterion for ELM
   LREAL  =      T    real-space projection
   NLSPLINE    = F    spline interpolate recip. space projectors
   LCOMPAT=      F    compatible to vasp.4.4
   GGA_COMPAT  = T    GGA compatible to vasp.4.4-vasp.4.6
   LMAXPAW     = -100 max onsite density
   LMAXMIX     =    2 max onsite mixed and CHGCAR
   VOSKOWN=      0    Vosko Wilk Nusair interpolation
   ROPT   =   -0.00025  -0.00025  -0.00025  -0.00025
 Ionic relaxation
   EDIFFG = 0.1E-02   stopping-criterion for IOM
   NSW    =     99    number of steps for IOM
   NBLOCK =      1;   KBLOCK =     99    inner block; outer block 
   IBRION =      2    ionic relax: 0-MD 1-quasi-New 2-CG
   NFREE  =      1    steps in history (QN), initial steepest desc. (CG)
   ISIF   =      3    stress and relaxation
   IWAVPR =     11    prediction:  0-non 1-charg 2-wave 3-comb
   ISYM   =      2    0-nonsym 1-usesym 2-fastsym
   LCORR  =      T    Harris-Foulkes like correction to forces

   POTIM  = 0.5000    time-step for ionic-motion
   TEIN   =    0.0    initial temperature
   TEBEG  =    0.0;   TEEND  =   0.0 temperature during run
   SMASS  =  -3.00    Nose mass-parameter (am)
   estimated Nose-frequenzy (Omega)   =  0.10E-29 period in steps =****** mass=  -0.109E-26a.u.
   SCALEE = 1.0000    scale energy and forces
   NPACO  =    256;   APACO  = 16.0  distance and # of slots for P.C.
   PSTRESS=    0.0 pullay stress

  Mass of Ions in am
   POMASS =  55.85 72.61 30.97 32.07
  Ionic Valenz
   ZVAL   =   8.00  4.00  5.00  6.00
  Atomic Wigner-Seitz radii
   RWIGS  =  -1.00 -1.00 -1.00 -1.00
  virtual crystal weights 
   VCA    =   1.00  1.00  1.00  1.00
   NELECT =      61.0000    total number of electrons
   NUPDOWN=      -1.0000    fix difference up-down

 DOS related values:
   EMIN   =  10.00;   EMAX   =-10.00  energy-range for DOS
   EFERMI =   0.00
   ISMEAR =    -5;   SIGMA  =   0.05  broadening in eV -4-tet -1-fermi 0-gaus

 Electronic relaxation 2 (details)
   IALGO  =     38    algorithm
   LDIAG  =      T    sub-space diagonalisation (order eigenvalues)
   LSUBROT=      F    optimize rotation matrix (better conditioning)
   TURBO    =      0    0=normal 1=particle mesh
   IRESTART =      0    0=no restart 2=restart with 2 vectors
   NREBOOT  =      0    no. of reboots
   NMIN     =      0    reboot dimension
   EREF     =   0.00    reference energy to select bands
   IMIX   =      4    mixing-type and parameters
     AMIX     =   0.40;   BMIX     =  1.00
     AMIX_MAG =   1.60;   BMIX_MAG =  1.00
     AMIN     =   0.01
     WC   =   100.;   INIMIX=   1;  MIXPRE=   1;  MAXMIX= -45

 Intra band minimization:
   WEIMIN = 0.0010     energy-eigenvalue tresh-hold
   EBREAK =  0.52E-06  absolut break condition
   DEPER  =   0.30     relativ break condition  

   TIME   =   0.40     timestep for ELM

  volume/ion in A,a.u.               =      96.88       653.80
  Fermi-wavevector in a.u.,A,eV,Ry     =   0.651281  1.230742  5.771135  0.424166
  Thomas-Fermi vector in A             =   1.720830

 Write flags
   LWAVE        =      F    write WAVECAR
   LDOWNSAMPLE  =      F    k-point downsampling of WAVECAR
   LCHARG       =      T    write CHGCAR
   LVTOT        =      F    write LOCPOT, total local potential
   LVHAR        =      F    write LOCPOT, Hartree potential only
   LELF         =      F    write electronic localiz. function (ELF)
   LORBIT       =     11    0 simple, 1 ext, 2 COOP (PROOUT), +10 PAW based schemes


 Dipole corrections
   LMONO  =      F    monopole corrections only (constant potential shift)
   LDIPOL =      F    correct potential (dipole corrections)
   IDIPOL =      0    1-x, 2-y, 3-z, 4-all directions 
   EPSILON=  1.0000000 bulk dielectric constant

 Exchange correlation treatment:
   GGA     =    BO    GGA type
   LEXCH   =    42    internal setting for exchange type
   VOSKOWN=      0    Vosko Wilk Nusair interpolation
   LHFCALC =     F    Hartree Fock is set to
   LHFONE  =     F    Hartree Fock one center treatment
   AEXX    =    0.0000 exact exchange contribution

 vdW DFT:
   LUSE_VDW   =     T    switch on vdW DFT
   Zab_VDW    =-.8491    correlation parameter
   PARAM1     =0.1833
   PARAM2     =0.2200
   PARAM3     =0.0000
   -- rVV10 --
   BPARAM     = 6.3000
   CPARAM     = 0.0093

 Linear response parameters
   LEPSILON=     F    determine dielectric tensor
   LRPA    =     F    only Hartree local field effects (RPA)
   LNABLA  =     F    use nabla operator in PAW spheres
   LVEL    =     F    velocity operator in full k-point grid
   LINTERFAST=   F  fast interpolation
   KINTER  =     0    interpolate to denser k-point grid
   CSHIFT  =0.1000    complex shift for real part using Kramers Kronig
   OMEGAMAX=  -1.0    maximum frequency
   DEG_THRESHOLD= 0.2000000E-02 threshold for treating states as degnerate
   RTIME   =   -0.100 relaxation time in fs
  (WPLASMAI=    0.000 imaginary part of plasma frequency in eV, 0.658/RTIME)
   DFIELD  = 0.0000000 0.0000000 0.0000000 field for delta impulse in time

 Orbital magnetization related:
   ORBITALMAG=     F  switch on orbital magnetization
   LCHIMAG   =     F  perturbation theory with respect to B field
   DQ        =  0.001000  dq finite difference perturbation B field
   LLRAUG    =     F  two centre corrections for induced B field



--------------------------------------------------------------------------------------------------------


 conjugate gradient relaxation of ions
   using selective dynamics as specified on POSCAR
 charge density and potential will be updated during run
 spin polarized calculation
 Variant of blocked Davidson
 Davidson routine will perform the subspace rotation
 perform sub-space diagonalisation
    after iterative eigenvector-optimisation
 modified Broyden-mixing scheme, WC =      100.0
 initial mixing is a Kerker type mixing with AMIX =  0.4000 and BMIX =      1.0000
 Hartree-type preconditioning will be used
 using additional bands           17
 real space projection scheme for non local part
 use partial core corrections
 calculate Harris-corrections to forces   (improved forces if not selfconsistent)
 use gradient corrections 
 use of overlap-Matrix (Vanderbilt PP)
 Fermi weights with tetrahedron method with Bloechl corrections


--------------------------------------------------------------------------------------------------------


  energy-cutoff  :      520.00
  volume of cell :      968.84
      direct lattice vectors                 reciprocal lattice vectors
     6.907777000 -0.000000000  0.000000000     0.144764372 -0.083579742  0.000000000
     3.453888000  5.982310000  0.000000000     0.000000000  0.167159509 -0.000000000
     0.000000000  0.000000000 23.444588000    -0.000000000  0.000000000  0.042653767

  length of vectors
     6.907777000  6.907776433 23.444588000     0.167159495  0.167159509  0.042653767



 k-points in units of 2pi/SCALE and weight: Kpoints from vasprun.xml                
   0.00000000  0.00000000  0.00000000       0.040
   0.02895287 -0.01671595  0.00000000       0.240
   0.05790575 -0.03343190  0.00000000       0.240
   0.05790575  0.00000000  0.00000000       0.240
  -0.05790575  0.06686380  0.00000000       0.240

 k-points in reciprocal lattice and weights: Kpoints from vasprun.xml                
   0.00000000  0.00000000  0.00000000       0.040
   0.20000000  0.00000000  0.00000000       0.240
   0.40000000  0.00000000  0.00000000       0.240
   0.40000000  0.20000000  0.00000000       0.240
  -0.40000000  0.20000000  0.00000000       0.240

 position of ions in fractional coordinates (direct lattice) 
   0.33333300  0.33333300  0.49992500
   0.66666700  0.66666700  0.50007500
   0.00000000  0.00000000  0.44821600
   0.00000000  0.00000000  0.55178400
   0.62635700  0.00042000  0.57375200
   0.00042000  0.37322400  0.57375200
   0.37322400  0.62635700  0.57375200
   0.37364300  0.99958000  0.42624800
   0.99958000  0.62677600  0.42624800
   0.62677600  0.37364300  0.42624800

 position of ions in cartesian coordinates  (Angst):
   3.45388488  1.99410134 11.72053566
   6.90778012  3.98820866 11.72405234
   0.00000000  0.00000000 10.50823946
   0.00000000  0.00000000 12.93634854
   4.32818511  0.00251257 13.45137925
   1.29197516  2.23274167 13.45137925
   4.74151509  3.74706174 13.45137925
   6.03347989  5.97979743  9.99320875
   9.06968984  3.74956833  9.99320875
   5.62014991  2.23524826  9.99320875



--------------------------------------------------------------------------------------------------------


 k-point  1 :   0.0000 0.0000 0.0000  plane waves:   26073
 k-point  2 :   0.2000 0.0000 0.0000  plane waves:   26070
 k-point  3 :   0.4000 0.0000 0.0000  plane waves:   26086
 k-point  4 :   0.4000 0.2000 0.0000  plane waves:   26085
 k-point  5 :  -0.4000 0.2000 0.0000  plane waves:   26115

 maximum and minimum number of plane-waves per node :     26115    26070

 maximum number of plane-waves:     26115
 maximum index in each direction: 
   IXMAX=   13   IYMAX=   12   IZMAX=   43
   IXMIN=  -13   IYMIN=  -13   IZMIN=  -43


 serial   3D FFT for wavefunctions
 parallel 3D FFT for charge:
    minimum data exchange during FFTs selected (reduces bandwidth)


 total amount of memory used by VASP MPI-rank0   128855. kBytes
=======================================================================

   base      :      30000. kBytes
   nonlr-proj:       6370. kBytes
   fftplans  :      11247. kBytes
   grid      :      68332. kBytes
   one-center:        311. kBytes
   wavefun   :      12595. kBytes

     INWAV:  cpu time    0.0000: real time    0.0004
 Broyden mixing: mesh for mixing (old mesh)
   NGX = 25   NGY = 25   NGZ = 87
  (NGX  =108   NGY  =108   NGZ  =360)
  gives a total of  54375 points

 initial charge density was supplied:
 charge density of overlapping atoms calculated
 number of electron      61.0000000 magnetization       7.2600000
 keeping initial charge density in first step


--------------------------------------------------------------------------------------------------------


 Maximum index for non-local projection operator         7925
 Maximum index for augmentation-charges         2133 (set IRDMAX)


--------------------------------------------------------------------------------------------------------


 First call to EWALD:  gamma=   0.179
 Maximum number of real-space cells 4x 4x 1
 Maximum number of reciprocal cells 2x 2x 6

    FEWALD:  cpu time    0.0040: real time    0.0028


--------------------------------------- Iteration      1(   1)  ---------------------------------------


vdW kernel read from vdw_kernel.bindat
  0.0000  0.2424  0.5071  0.7962  1.1119  1.4567  1.8333  2.2446  2.6937  3.1842
  3.7199  4.3049  4.9438  5.6415  6.4036  7.2358  8.1446  9.1372 10.2212 11.4050
 12.6979 14.1099 15.6519 17.3360 19.1751 21.1837 23.3773 25.7729 28.3892 31.2465
 34.3669 37.7748 41.4965 45.5611 50.0000

    POTLOK:  cpu time   52.2720: real time   52.3718
    SETDIJ:  cpu time    0.0440: real time    0.0436
     EDDAV:  cpu time   22.4480: real time   22.6291
 BZINTS: Fermi energy:  5.145591; 61.000000 electrons
         Band energy: -26.241358;  BLOECHL correction: -0.029941
       DOS:  cpu time    0.0040: real time    0.0050
    --------------------------------------------
      LOOP:  cpu time   74.7680: real time   75.0494

 eigenvalue-minimisations  :   960
 total energy-change (2. order) : 0.4224114E+03  (-0.1811819E+04)
 number of electron      61.0000000 magnetization       7.2600000
 augmentation part       61.0000000 magnetization       7.2600000

 Free energy of the ion-electron system (eV)
  ---------------------------------------------------
  alpha Z        PSCENC =        24.64986564
  Ewald energy   TEWEN  =      7259.79945079
  -Hartree energ DENC   =    -10079.88933569
  -exchange      EXHF   =         0.00000000
  -V(xc)+E(xc)   XCENC  =        68.85742156
  PAW double counting   =      1639.29864201    -1607.53019075
  entropy T*S    EENTRO =         0.00000000
  eigenvalues    EBANDS =       -26.24135752
  atomic energy  EATOM  =      3143.46690034
  Solvation  Ediel_sol  =         0.00000000
  ---------------------------------------------------
  free energy    TOTEN  =       422.41139639 eV

  energy without entropy =      422.41139639  energy(sigma->0) =      422.41139639


--------------------------------------------------------------------------------------------------------




--------------------------------------- Iteration      1(   2)  ---------------------------------------


     EDDAV:  cpu time   27.8840: real time   27.9863
 BZINTS: Fermi energy: -1.368598; 61.000000 electrons
         Band energy:-414.717618;  BLOECHL correction: -0.069156
       DOS:  cpu time    0.0040: real time    0.0048
    --------------------------------------------
      LOOP:  cpu time   27.8880: real time   27.9911

 eigenvalue-minimisations  :  1216
 total energy-change (2. order) :-0.3884763E+03  (-0.3564240E+03)
 number of electron      61.0000000 magnetization       7.2600000
 augmentation part       61.0000000 magnetization       7.2600000

 Free energy of the ion-electron system (eV)
  ---------------------------------------------------
  alpha Z        PSCENC =        24.64986564
  Ewald energy   TEWEN  =      7259.79945079
  -Hartree energ DENC   =    -10079.88933569
  -exchange      EXHF   =         0.00000000
  -V(xc)+E(xc)   XCENC  =        68.85742156
  PAW double counting   =      1639.29864201    -1607.53019075
  entropy T*S    EENTRO =         0.00000000
  eigenvalues    EBANDS =      -414.71761800
  atomic energy  EATOM  =      3143.46690034
  Solvation  Ediel_sol  =         0.00000000
  ---------------------------------------------------
  free energy    TOTEN  =        33.93513590 eV

  energy without entropy =       33.93513590  energy(sigma->0) =       33.93513590


--------------------------------------------------------------------------------------------------------




--------------------------------------- Iteration      1(   3)  ---------------------------------------


     EDDAV:  cpu time   29.6960: real time   30.0107
 BZINTS: Fermi energy: -2.845060; 61.000000 electrons
         Band energy:-498.463157;  BLOECHL correction: -0.001923
       DOS:  cpu time    0.0080: real time    0.0053
    --------------------------------------------
      LOOP:  cpu time   29.7040: real time   30.0160

 eigenvalue-minimisations  :  1312
 total energy-change (2. order) :-0.8374554E+02  (-0.8123267E+02)
 number of electron      61.0000000 magnetization       7.2600000
 augmentation part       61.0000000 magnetization       7.2600000

 Free energy of the ion-electron system (eV)
  ---------------------------------------------------
  alpha Z        PSCENC =        24.64986564
  Ewald energy   TEWEN  =      7259.79945079
  -Hartree energ DENC   =    -10079.88933569
  -exchange      EXHF   =         0.00000000
  -V(xc)+E(xc)   XCENC  =        68.85742156
  PAW double counting   =      1639.29864201    -1607.53019075
  entropy T*S    EENTRO =         0.00000000
  eigenvalues    EBANDS =      -498.46315694
  atomic energy  EATOM  =      3143.46690034
  Solvation  Ediel_sol  =         0.00000000
  ---------------------------------------------------
  free energy    TOTEN  =       -49.81040304 eV

  energy without entropy =      -49.81040304  energy(sigma->0) =      -49.81040304


--------------------------------------------------------------------------------------------------------




--------------------------------------- Iteration      1(   4)  ---------------------------------------


     EDDAV:  cpu time   28.2480: real time   28.6648
 BZINTS: Fermi energy: -2.882370; 61.000000 electrons
         Band energy:-502.116127;  BLOECHL correction: -0.002846
       DOS:  cpu time    0.0040: real time    0.0051
    --------------------------------------------
      LOOP:  cpu time   28.2520: real time   28.6698

 eigenvalue-minimisations  :  1248
 total energy-change (2. order) :-0.3652970E+01  (-0.3606611E+01)
 number of electron      61.0000000 magnetization       7.2600000
 augmentation part       61.0000000 magnetization       7.2600000

 Free energy of the ion-electron system (eV)
  ---------------------------------------------------
  alpha Z        PSCENC =        24.64986564
  Ewald energy   TEWEN  =      7259.79945079
  -Hartree energ DENC   =    -10079.88933569
  -exchange      EXHF   =         0.00000000
  -V(xc)+E(xc)   XCENC  =        68.85742156
  PAW double counting   =      1639.29864201    -1607.53019075
  entropy T*S    EENTRO =         0.00000000
  eigenvalues    EBANDS =      -502.11612715
  atomic energy  EATOM  =      3143.46690034
  Solvation  Ediel_sol  =         0.00000000
  ---------------------------------------------------
  free energy    TOTEN  =       -53.46337324 eV

  energy without entropy =      -53.46337324  energy(sigma->0) =      -53.46337324


--------------------------------------------------------------------------------------------------------




--------------------------------------- Iteration      1(   5)  ---------------------------------------


     EDDAV:  cpu time   30.1400: real time   30.4555
 BZINTS: Fermi energy: -2.882626; 61.000000 electrons
         Band energy:-502.253668;  BLOECHL correction: -0.002830
       DOS:  cpu time    0.0040: real time    0.0058
    CHARGE:  cpu time    2.0520: real time    2.0653
    MIXING:  cpu time    0.0400: real time    0.0428
    --------------------------------------------
      LOOP:  cpu time   32.2360: real time   32.5694

 eigenvalue-minimisations  :  1344
 total energy-change (2. order) :-0.1375407E+00  (-0.1375157E+00)
 number of electron      61.0000001 magnetization       7.2321232
 augmentation part       -1.8258472 magnetization       4.9177792

 Broyden mixing:
  rms(total) = 0.29019E+01    rms(broyden)= 0.29016E+01
  rms(prec ) = 0.32340E+01
  weight for this iteration     100.00

 Free energy of the ion-electron system (eV)
  ---------------------------------------------------
  alpha Z        PSCENC =        24.64986564
  Ewald energy   TEWEN  =      7259.79945079
  -Hartree energ DENC   =    -10079.88933569
  -exchange      EXHF   =         0.00000000
  -V(xc)+E(xc)   XCENC  =        68.85742156
  PAW double counting   =      1639.29864201    -1607.53019075
  entropy T*S    EENTRO =         0.00000000
  eigenvalues    EBANDS =      -502.25366785
  atomic energy  EATOM  =      3143.46690034
  Solvation  Ediel_sol  =         0.00000000
  ---------------------------------------------------
  free energy    TOTEN  =       -53.60091394 eV

  energy without entropy =      -53.60091394  energy(sigma->0) =      -53.60091394


--------------------------------------------------------------------------------------------------------




--------------------------------------- Iteration      1(   6)  ---------------------------------------


    POTLOK:  cpu time   51.5640: real time   51.8095
    SETDIJ:  cpu time    0.0440: real time    0.0462
     EDDAV:  cpu time   29.3880: real time   29.5971
 BZINTS: Fermi energy: -4.849754; 61.000000 electrons
         Band energy:-702.675737;  BLOECHL correction: -0.016817
       DOS:  cpu time    0.0040: real time    0.0075
    CHARGE:  cpu time    1.8120: real time    2.0343
    MIXING:  cpu time    0.0320: real time    0.0411
    --------------------------------------------
      LOOP:  cpu time   82.8440: real time   83.5356

 eigenvalue-minimisations  :  1296
 total energy-change (2. order) :-0.7509486E+02  (-0.4365042E+02)
 number of electron      61.0000011 magnetization       7.0067685
 augmentation part        9.7278011 magnetization       6.7900729

 Broyden mixing:
  rms(total) = 0.66186E+01    rms(broyden)= 0.66184E+01
  rms(prec ) = 0.71390E+01
  weight for this iteration     100.00

 eigenvalues of (default mixing * dielectric matrix)
  average eigenvalue GAMMA=   0.2409
  0.2409

 Free energy of the ion-electron system (eV)
  ---------------------------------------------------
  alpha Z        PSCENC =        24.64986564
  Ewald energy   TEWEN  =      7259.79945079
  -Hartree energ DENC   =     -9969.67444498
  -exchange      EXHF   =         0.00000000
  -V(xc)+E(xc)   XCENC  =        69.13138775
  PAW double counting   =      1446.00380558    -1399.39700710
  entropy T*S    EENTRO =         0.00000000
  eigenvalues    EBANDS =      -702.67573652
  atomic energy  EATOM  =      3143.46690034
  Solvation  Ediel_sol  =         0.00000000
  ---------------------------------------------------
  free energy    TOTEN  =      -128.69577851 eV

  energy without entropy =     -128.69577851  energy(sigma->0) =     -128.69577851


--------------------------------------------------------------------------------------------------------




--------------------------------------- Iteration      1(   7)  ---------------------------------------


    POTLOK:  cpu time   50.6400: real time   52.7847
    SETDIJ:  cpu time    0.0440: real time    0.0424
     EDDAV:  cpu time   24.3040: real time   24.5866
 BZINTS: Fermi energy: -5.038366; 61.000000 electrons
         Band energy:-543.251917;  BLOECHL correction: -0.016132
       DOS:  cpu time    0.0040: real time    0.0064
    CHARGE:  cpu time    2.0800: real time    2.0852
    MIXING:  cpu time    0.0440: real time    0.0435
    --------------------------------------------
      LOOP:  cpu time   77.1160: real time   79.5487

 eigenvalue-minimisations  :  1056
 total energy-change (2. order) : 0.7910756E+02  (-0.8111496E+01)
 number of electron      61.0000009 magnetization       6.6771824
 augmentation part        7.2275360 magnetization       6.3912432

 Broyden mixing:
  rms(total) = 0.37928E+01    rms(broyden)= 0.37928E+01
  rms(prec ) = 0.41448E+01
  weight for this iteration     100.00

 eigenvalues of (default mixing * dielectric matrix)
  average eigenvalue GAMMA=   0.5523
  0.5523  0.5523

 Free energy of the ion-electron system (eV)
  ---------------------------------------------------
  alpha Z        PSCENC =        24.64986564
  Ewald energy   TEWEN  =      7259.79945079
  -Hartree energ DENC   =    -10034.78402496
  -exchange      EXHF   =         0.00000000
  -V(xc)+E(xc)   XCENC  =        67.42768622
  PAW double counting   =      1565.15925735    -1532.05543174
  entropy T*S    EENTRO =         0.00000000
  eigenvalues    EBANDS =      -543.25191748
  atomic energy  EATOM  =      3143.46690034
  Solvation  Ediel_sol  =         0.00000000
  ---------------------------------------------------
  free energy    TOTEN  =       -49.58821385 eV

  energy without entropy =      -49.58821385  energy(sigma->0) =      -49.58821385


--------------------------------------------------------------------------------------------------------




--------------------------------------- Iteration      1(   8)  ---------------------------------------


    POTLOK:  cpu time   52.6040: real time   52.8331
    SETDIJ:  cpu time    0.0480: real time    0.0481
     EDDAV:  cpu time   31.4080: real time   31.5638
 BZINTS: Fermi energy: -2.822615; 61.000000 electrons
         Band energy:-496.106808;  BLOECHL correction: -0.002564
       DOS:  cpu time    0.0040: real time    0.0073
    CHARGE:  cpu time    2.0160: real time    2.0524
    MIXING:  cpu time    0.0320: real time    0.0418
    --------------------------------------------
      LOOP:  cpu time   86.1120: real time   86.5465

 eigenvalue-minimisations  :  1392
 total energy-change (2. order) : 0.1732223E+01  (-0.8984778E+01)
 number of electron      61.0000001 magnetization       6.5730293
 augmentation part       -1.6488177 magnetization       4.0453042

 Broyden mixing:
  rms(total) = 0.30695E+01    rms(broyden)= 0.30692E+01
  rms(prec ) = 0.33527E+01
  weight for this iteration     100.00

 eigenvalues of (default mixing * dielectric matrix)
  average eigenvalue GAMMA=   0.5846
  0.9493  0.4023  0.4023

 Free energy of the ion-electron system (eV)
  ---------------------------------------------------
  alpha Z        PSCENC =        24.64986564
  Ewald energy   TEWEN  =      7259.79945079
  -Hartree energ DENC   =    -10077.70254566
  -exchange      EXHF   =         0.00000000
  -V(xc)+E(xc)   XCENC  =        67.49274044
  PAW double counting   =      1646.58464183    -1616.04023559
  entropy T*S    EENTRO =         0.00000000
  eigenvalues    EBANDS =      -496.10680827
  atomic energy  EATOM  =      3143.46690034
  Solvation  Ediel_sol  =         0.00000000
  ---------------------------------------------------
  free energy    TOTEN  =       -47.85599048 eV

  energy without entropy =      -47.85599048  energy(sigma->0) =      -47.85599048


--------------------------------------------------------------------------------------------------------




--------------------------------------- Iteration      1(   9)  ---------------------------------------


    POTLOK:  cpu time   51.7960: real time   52.6044
    SETDIJ:  cpu time    0.0400: real time    0.0408
     EDDAV:  cpu time   34.5200: real time   35.0569
 BZINTS: Fermi energy: -4.231675; 61.000000 electrons
         Band energy:-517.286768;  BLOECHL correction: -0.012524
       DOS:  cpu time    0.0040: real time    0.0069
    CHARGE:  cpu time    2.0400: real time    2.0531
    MIXING:  cpu time    0.0400: real time    0.0432
    --------------------------------------------
      LOOP:  cpu time   88.4400: real time   89.8054

 eigenvalue-minimisations  :  1552
 total energy-change (2. order) : 0.6408848E+01  (-0.2741224E+01)
 number of electron      61.0000003 magnetization       6.6424933
 augmentation part        2.2595387 magnetization       3.8337778

 Broyden mixing:
  rms(total) = 0.12712E+01    rms(broyden)= 0.12707E+01
  rms(prec ) = 0.12801E+01
  weight for this iteration     100.00

 eigenvalues of (default mixing * dielectric matrix)
  average eigenvalue GAMMA=   0.4295
  0.8029  0.4084  0.4084  0.0983

 Free energy of the ion-electron system (eV)
  ---------------------------------------------------
  alpha Z        PSCENC =        24.64986564
  Ewald energy   TEWEN  =      7259.79945079
  -Hartree energ DENC   =    -10050.40826095
  -exchange      EXHF   =         0.00000000
  -V(xc)+E(xc)   XCENC  =        67.35591333
  PAW double counting   =      1596.22731762    -1565.25156095
  entropy T*S    EENTRO =         0.00000000
  eigenvalues    EBANDS =      -517.28676809
  atomic energy  EATOM  =      3143.46690034
  Solvation  Ediel_sol  =         0.00000000
  ---------------------------------------------------
  free energy    TOTEN  =       -41.44714228 eV

  energy without entropy =      -41.44714228  energy(sigma->0) =      -41.44714228


--------------------------------------------------------------------------------------------------------




--------------------------------------- Iteration      1(  10)  ---------------------------------------


    POTLOK:  cpu time   52.0520: real time   52.3581
    SETDIJ:  cpu time    0.0640: real time    0.0797
     EDDAV:  cpu time   28.2120: real time   28.6053
 BZINTS: Fermi energy: -4.315757; 61.018885 electrons
         Band energy:-517.807021;  BLOECHL correction: -0.008526
       DOS:  cpu time    0.0240: real time    0.0279
    CHARGE:  cpu time    2.0400: real time    2.0516
    MIXING:  cpu time    0.0560: real time    0.0598
    --------------------------------------------
      LOOP:  cpu time   82.4480: real time   83.1824

 eigenvalue-minimisations  :  1248
 total energy-change (2. order) : 0.3567154E+00  (-0.6818041E+01)
 number of electron      61.0188851 magnetization       6.6491600
 augmentation part        2.6127133 magnetization       3.9917830

 Broyden mixing:
  rms(total) = 0.10380E+01    rms(broyden)= 0.10379E+01
  rms(prec ) = 0.10686E+01
  weight for this iteration     100.00

 eigenvalues of (default mixing * dielectric matrix)
  average eigenvalue GAMMA=   0.3467
  0.7816  0.4094  0.4094  0.0664  0.0664

 Free energy of the ion-electron system (eV)
  ---------------------------------------------------
  alpha Z        PSCENC =        24.64986564
  Ewald energy   TEWEN  =      7259.79945079
  -Hartree energ DENC   =    -10049.78272488
  -exchange      EXHF   =         0.00000000
  -V(xc)+E(xc)   XCENC  =        67.61757066
  PAW double counting   =      1594.76616162    -1563.80062995
  entropy T*S    EENTRO =         0.00000000
  eigenvalues    EBANDS =      -517.80702113
  atomic energy  EATOM  =      3143.46690034
  Solvation  Ediel_sol  =         0.00000000
  ---------------------------------------------------
  free energy    TOTEN  =       -41.09042691 eV

  energy without entropy =      -41.09042691  energy(sigma->0) =      -41.09042691


--------------------------------------------------------------------------------------------------------




--------------------------------------- Iteration      1(  11)  ---------------------------------------


    POTLOK:  cpu time   52.3400: real time   52.4652
    SETDIJ:  cpu time    0.0440: real time    0.0431
     EDDAV:  cpu time   30.3880: real time   30.6430
 BZINTS: Fermi energy: -4.327153; 61.000000 electrons
         Band energy:-518.152185;  BLOECHL correction: -0.009215
       DOS:  cpu time    0.0040: real time    0.0068
    CHARGE:  cpu time    2.1480: real time    2.1487
    MIXING:  cpu time    0.0400: real time    0.0436
    --------------------------------------------
      LOOP:  cpu time   84.9640: real time   85.3505

 eigenvalue-minimisations  :  1344
 total energy-change (2. order) :-0.2832259E+00  (-0.3582854E+00)
 number of electron      61.0000004 magnetization       6.6600030
 augmentation part        2.5583324 magnetization       4.0468984

 Broyden mixing:
  rms(total) = 0.99126E+00    rms(broyden)= 0.99122E+00
  rms(prec ) = 0.10085E+01
  weight for this iteration     100.00

 eigenvalues of (default mixing * dielectric matrix)
  average eigenvalue GAMMA=   0.3126
  0.7664  0.4078  0.4078  0.1327  0.1327  0.0280

 Free energy of the ion-electron system (eV)
  ---------------------------------------------------
  alpha Z        PSCENC =        24.64986564
  Ewald energy   TEWEN  =      7259.79945079
  -Hartree energ DENC   =    -10049.74958275
  -exchange      EXHF   =         0.00000000
  -V(xc)+E(xc)   XCENC  =        67.65498051
  PAW double counting   =      1594.59220708    -1563.63528895
  entropy T*S    EENTRO =         0.00000000
  eigenvalues    EBANDS =      -518.15218546
  atomic energy  EATOM  =      3143.46690034
  Solvation  Ediel_sol  =         0.00000000
  ---------------------------------------------------
  free energy    TOTEN  =       -41.37365281 eV

  energy without entropy =      -41.37365281  energy(sigma->0) =      -41.37365281


--------------------------------------------------------------------------------------------------------




--------------------------------------- Iteration      1(  12)  ---------------------------------------


    POTLOK:  cpu time   52.0520: real time   52.4246
    SETDIJ:  cpu time    0.0440: real time    0.0424
     EDDAV:  cpu time   29.5560: real time   30.3025
 BZINTS: Fermi energy: -4.346822; 61.005440 electrons
         Band energy:-518.439722;  BLOECHL correction: -0.009373
       DOS:  cpu time    0.0080: real time    0.0095
    CHARGE:  cpu time    2.0640: real time    2.0675
    MIXING:  cpu time    0.0480: real time    0.0501
    --------------------------------------------
      LOOP:  cpu time   83.7720: real time   84.8965

 eigenvalue-minimisations  :  1328
 total energy-change (2. order) :-0.9977742E-01  (-0.1159607E-01)
 number of electron      61.0054404 magnetization       6.6676107
 augmentation part        2.6316730 magnetization       4.1017916

 Broyden mixing:
  rms(total) = 0.92152E+00    rms(broyden)= 0.92152E+00
  rms(prec ) = 0.94152E+00
  weight for this iteration     100.00

 eigenvalues of (default mixing * dielectric matrix)
  average eigenvalue GAMMA=   0.3338
  0.7785  0.4050  0.4050  0.2644  0.2644  0.1886  0.0309

 Free energy of the ion-electron system (eV)
  ---------------------------------------------------
  alpha Z        PSCENC =        24.64986564
  Ewald energy   TEWEN  =      7259.79945079
  -Hartree energ DENC   =    -10049.60425693
  -exchange      EXHF   =         0.00000000
  -V(xc)+E(xc)   XCENC  =        67.69520584
  PAW double counting   =      1593.98057584    -1563.02144962
  entropy T*S    EENTRO =         0.00000000
  eigenvalues    EBANDS =      -518.43972213
  atomic energy  EATOM  =      3143.46690034
  Solvation  Ediel_sol  =         0.00000000
  ---------------------------------------------------
  free energy    TOTEN  =       -41.47343023 eV

  energy without entropy =      -41.47343023  energy(sigma->0) =      -41.47343023


--------------------------------------------------------------------------------------------------------




--------------------------------------- Iteration      1(  13)  ---------------------------------------


    POTLOK:  cpu time   52.3720: real time   52.5660
    SETDIJ:  cpu time    0.0440: real time    0.0443
     EDDAV:  cpu time   32.7240: real time   32.8956
 BZINTS: Fermi energy: -4.372722; 61.000000 electrons
         Band energy:-518.450086;  BLOECHL correction: -0.004719
       DOS:  cpu time    0.0080: real time    0.0072
    CHARGE:  cpu time    2.0920: real time    2.1023
    MIXING:  cpu time    0.0440: real time    0.0453
    --------------------------------------------
      LOOP:  cpu time   87.2840: real time   87.6607

 eigenvalue-minimisations  :  1456
 total energy-change (2. order) :-0.7849006E-01  (-0.9118641E-01)
 number of electron      61.0000004 magnetization       6.6756101
 augmentation part        2.7007255 magnetization       4.1812056

 Broyden mixing:
  rms(total) = 0.12145E+01    rms(broyden)= 0.12144E+01
  rms(prec ) = 0.12756E+01
  weight for this iteration     100.00

 eigenvalues of (default mixing * dielectric matrix)
  average eigenvalue GAMMA=   0.3539
  0.7806  0.3944  0.3944  0.4081  0.4081  0.2072  0.2072  0.0315

 Free energy of the ion-electron system (eV)
  ---------------------------------------------------
  alpha Z        PSCENC =        24.64986564
  Ewald energy   TEWEN  =      7259.79945079
  -Hartree energ DENC   =    -10049.74161677
  -exchange      EXHF   =         0.00000000
  -V(xc)+E(xc)   XCENC  =        67.78475729
  PAW double counting   =      1593.75668584    -1562.81787778
  entropy T*S    EENTRO =         0.00000000
  eigenvalues    EBANDS =      -518.45008564
  atomic energy  EATOM  =      3143.46690034
  Solvation  Ediel_sol  =         0.00000000
  ---------------------------------------------------
  free energy    TOTEN  =       -41.55192029 eV

  energy without entropy =      -41.55192029  energy(sigma->0) =      -41.55192029


--------------------------------------------------------------------------------------------------------




--------------------------------------- Iteration      1(  14)  ---------------------------------------


    POTLOK:  cpu time   51.1520: real time   52.2182
    SETDIJ:  cpu time    0.0440: real time    0.0448
     EDDAV:  cpu time   30.4040: real time   30.6019
 BZINTS: Fermi energy: -4.423200; 61.000000 electrons
         Band energy:-546.968896;  BLOECHL correction: -0.008459
       DOS:  cpu time    0.0040: real time    0.0080
    CHARGE:  cpu time    1.9960: real time    2.0967
    MIXING:  cpu time    0.0520: real time    0.0496
    --------------------------------------------
      LOOP:  cpu time   83.6520: real time   85.0193

 eigenvalue-minimisations  :  1344
 total energy-change (2. order) :-0.2813930E+02  (-0.2806773E+02)
 number of electron      61.0000004 magnetization       6.6756574
 augmentation part        2.4399537 magnetization       3.6160429

 Broyden mixing:
  rms(total) = 0.18637E+01    rms(broyden)= 0.18546E+01
  rms(prec ) = 0.19512E+01
  weight for this iteration     100.00

 eigenvalues of (default mixing * dielectric matrix)
  average eigenvalue GAMMA=   0.3147
  0.7805  0.3945  0.3945  0.4081  0.4081  0.2070  0.2070  0.0315  0.0009

 Free energy of the ion-electron system (eV)
  ---------------------------------------------------
  alpha Z        PSCENC =        24.64986564
  Ewald energy   TEWEN  =      7259.79945079
  -Hartree energ DENC   =    -10049.43135302
  -exchange      EXHF   =         0.00000000
  -V(xc)+E(xc)   XCENC  =        67.89314711
  PAW double counting   =      1593.03482289    -1562.13515475
  entropy T*S    EENTRO =         0.00000000
  eigenvalues    EBANDS =      -546.96889620
  atomic energy  EATOM  =      3143.46690034
  Solvation  Ediel_sol  =         0.00000000
  ---------------------------------------------------
  free energy    TOTEN  =       -69.69121721 eV

  energy without entropy =      -69.69121721  energy(sigma->0) =      -69.69121721


--------------------------------------------------------------------------------------------------------




--------------------------------------- Iteration      1(  15)  ---------------------------------------


    POTLOK:  cpu time   51.6960: real time   52.2798
    SETDIJ:  cpu time    0.0400: real time    0.0424
     EDDAV:  cpu time   28.2480: real time   28.4219
 BZINTS: Fermi energy: -4.365058; 61.000000 electrons
         Band energy:-518.875263;  BLOECHL correction: -0.003792
       DOS:  cpu time    0.0040: real time    0.0071
    CHARGE:  cpu time    2.0920: real time    2.0947
    MIXING:  cpu time    0.0520: real time    0.0518
    --------------------------------------------
      LOOP:  cpu time   82.1320: real time   82.8978

 eigenvalue-minimisations  :  1232
 total energy-change (2. order) : 0.2833927E+02  (-0.6665214E+02)
 number of electron      61.0000004 magnetization       6.6758891
 augmentation part        2.7446108 magnetization       4.1635147

 Broyden mixing:
  rms(total) = 0.12113E+01    rms(broyden)= 0.12023E+01
  rms(prec ) = 0.12676E+01
  weight for this iteration     100.00

 eigenvalues of (default mixing * dielectric matrix)
  average eigenvalue GAMMA=   0.3085
  0.7790  0.3945  0.3945  0.4085  0.4085  0.2382  0.2382  0.1921  0.0315  0.0003

 Free energy of the ion-electron system (eV)
  ---------------------------------------------------
  alpha Z        PSCENC =        24.64986564
  Ewald energy   TEWEN  =      7259.79945079
  -Hartree energ DENC   =    -10049.43054590
  -exchange      EXHF   =         0.00000000
  -V(xc)+E(xc)   XCENC  =        68.12389066
  PAW double counting   =      1593.02081857    -1562.10706683
  entropy T*S    EENTRO =         0.00000000
  eigenvalues    EBANDS =      -518.87526329
  atomic energy  EATOM  =      3143.46690034
  Solvation  Ediel_sol  =         0.00000000
  ---------------------------------------------------
  free energy    TOTEN  =       -41.35195002 eV

  energy without entropy =      -41.35195002  energy(sigma->0) =      -41.35195002


--------------------------------------------------------------------------------------------------------




--------------------------------------- Iteration      1(  16)  ---------------------------------------


    POTLOK:  cpu time   52.4280: real time   52.4992
    SETDIJ:  cpu time    0.0600: real time    0.0589
     EDDAV:  cpu time   28.3160: real time   28.3934
 BZINTS: Fermi energy: -4.415323; 61.000000 electrons
         Band energy:-542.646002;  BLOECHL correction: -0.009697
       DOS:  cpu time    0.0080: real time    0.0078
    CHARGE:  cpu time    1.9440: real time    2.0550
    MIXING:  cpu time    0.0480: real time    0.0472
    --------------------------------------------
      LOOP:  cpu time   82.8040: real time   83.0616

 eigenvalue-minimisations  :  1232
 total energy-change (2. order) :-0.2416533E+02  (-0.2394479E+02)
 number of electron      61.0000004 magnetization       6.6759168
 augmentation part        2.3887712 magnetization       3.5619604

 Broyden mixing:
  rms(total) = 0.23337E+01    rms(broyden)= 0.23268E+01
  rms(prec ) = 0.24185E+01
  weight for this iteration     100.00

 eigenvalues of (default mixing * dielectric matrix)
  average eigenvalue GAMMA=   0.2804
  0.7789  0.3944  0.3944  0.4085  0.4085  0.2382  0.2382  0.1916  0.0315  0.0003
  0.0003

 Free energy of the ion-electron system (eV)
  ---------------------------------------------------
  alpha Z        PSCENC =        24.64986564
  Ewald energy   TEWEN  =      7259.79945079
  -Hartree energ DENC   =    -10049.61544145
  -exchange      EXHF   =         0.00000000
  -V(xc)+E(xc)   XCENC  =        67.92448190
  PAW double counting   =      1593.37560005    -1562.47213638
  entropy T*S    EENTRO =         0.00000000
  eigenvalues    EBANDS =      -542.64600158
  atomic energy  EATOM  =      3143.46690034
  Solvation  Ediel_sol  =         0.00000000
  ---------------------------------------------------
  free energy    TOTEN  =       -65.51728069 eV

  energy without entropy =      -65.51728069  energy(sigma->0) =      -65.51728069


--------------------------------------------------------------------------------------------------------




--------------------------------------- Iteration      1(  17)  ---------------------------------------


    POTLOK:  cpu time   51.7600: real time   51.8491
    SETDIJ:  cpu time    0.0440: real time    0.0447
     EDDAV:  cpu time   23.4600: real time   23.6169
 BZINTS: Fermi energy: -4.346767; 61.000000 electrons
         Band energy:-518.678258;  BLOECHL correction: -0.007845
       DOS:  cpu time    0.0080: real time    0.0072
    CHARGE:  cpu time    2.0680: real time    2.0836
    MIXING:  cpu time    0.0680: real time    0.0696
    --------------------------------------------
      LOOP:  cpu time   77.4080: real time   77.6711

 eigenvalue-minimisations  :  1008
 total energy-change (2. order) : 0.2411637E+02  (-0.6644785E+02)
 number of electron      61.0000004 magnetization       6.6789930
 augmentation part        2.7000022 magnetization       4.1359859

 Broyden mixing:
  rms(total) = 0.12148E+01    rms(broyden)= 0.12063E+01
  rms(prec ) = 0.12683E+01
  weight for this iteration     100.00

 eigenvalues of (default mixing * dielectric matrix)
  average eigenvalue GAMMA=   0.3208
  0.7878  0.4904  0.4763  0.4763  0.4129  0.4129  0.2638  0.2638  0.2333  0.0315
  0.0002  0.0003

 Free energy of the ion-electron system (eV)
  ---------------------------------------------------
  alpha Z        PSCENC =        24.64986564
  Ewald energy   TEWEN  =      7259.79945079
  -Hartree energ DENC   =    -10049.61654306
  -exchange      EXHF   =         0.00000000
  -V(xc)+E(xc)   XCENC  =        68.06919086
  PAW double counting   =      1593.37099571    -1562.46251633
  entropy T*S    EENTRO =         0.00000000
  eigenvalues    EBANDS =      -518.67825785
  atomic energy  EATOM  =      3143.46690034
  Solvation  Ediel_sol  =         0.00000000
  ---------------------------------------------------
  free energy    TOTEN  =       -41.40091389 eV

  energy without entropy =      -41.40091389  energy(sigma->0) =      -41.40091389


--------------------------------------------------------------------------------------------------------




--------------------------------------- Iteration      1(  18)  ---------------------------------------


    POTLOK:  cpu time   52.2360: real time   52.5364
    SETDIJ:  cpu time    0.0480: real time    0.0457
     EDDAV:  cpu time   24.5080: real time   24.9091
 BZINTS: Fermi energy: -4.355501; 61.000000 electrons
         Band energy:-518.716495;  BLOECHL correction: -0.007524
       DOS:  cpu time    0.0040: real time    0.0072
    CHARGE:  cpu time    2.0720: real time    2.0741
    MIXING:  cpu time    0.0520: real time    0.0518
    --------------------------------------------
      LOOP:  cpu time   78.9200: real time   79.6243

 eigenvalue-minimisations  :  1072
 total energy-change (2. order) :-0.1640055E+00  (-0.5378593E-02)
 number of electron      61.0000004 magnetization       6.6777495
 augmentation part        2.7045072 magnetization       4.1551584

 Broyden mixing:
  rms(total) = 0.12115E+01    rms(broyden)= 0.12112E+01
  rms(prec ) = 0.12747E+01
  weight for this iteration     100.00

 eigenvalues of (default mixing * dielectric matrix)
  average eigenvalue GAMMA=   0.3462
  0.6984  0.7741  0.5429  0.5429  0.4159  0.4159  0.2909  0.2909  0.2483  0.2483
  0.0315  0.0002  0.0003

 Free energy of the ion-electron system (eV)
  ---------------------------------------------------
  alpha Z        PSCENC =        24.64986564
  Ewald energy   TEWEN  =      7259.79945079
  -Hartree energ DENC   =    -10049.58384297
  -exchange      EXHF   =         0.00000000
  -V(xc)+E(xc)   XCENC  =        67.91471607
  PAW double counting   =      1593.32292986    -1562.41844434
  entropy T*S    EENTRO =         0.00000000
  eigenvalues    EBANDS =      -518.71649477
  atomic energy  EATOM  =      3143.46690034
  Solvation  Ediel_sol  =         0.00000000
  ---------------------------------------------------
  free energy    TOTEN  =       -41.56491939 eV

  energy without entropy =      -41.56491939  energy(sigma->0) =      -41.56491939


--------------------------------------------------------------------------------------------------------




--------------------------------------- Iteration      1(  19)  ---------------------------------------


    POTLOK:  cpu time   51.8640: real time   52.0815
    SETDIJ:  cpu time    0.0440: real time    0.0417
     EDDAV:  cpu time   29.9240: real time   30.3738
 BZINTS: Fermi energy: -4.401391; 61.000000 electrons
         Band energy:-568.351229;  BLOECHL correction: -0.008351
       DOS:  cpu time    0.0080: real time    0.0072
    CHARGE:  cpu time    1.9920: real time    2.0777
    MIXING:  cpu time    0.0560: real time    0.0548
    --------------------------------------------
      LOOP:  cpu time   83.8880: real time   84.6366

 eigenvalue-minimisations  :  1328
 total energy-change (2. order) :-0.5003379E+02  (-0.9871670E-02)
 number of electron      61.0000003 magnetization       6.6777302
 augmentation part        2.2746699 magnetization       5.3546008

 Broyden mixing:
  rms(total) = 0.21447E+01    rms(broyden)= 0.21213E+01
  rms(prec ) = 0.22078E+01
  weight for this iteration     100.00

 eigenvalues of (default mixing * dielectric matrix)
  average eigenvalue GAMMA=   0.3215
  0.6985  0.7740  0.5430  0.5430  0.4159  0.4159  0.2909  0.2909  0.2483  0.2483
  0.0315  0.0005  0.0003  0.0002

 Free energy of the ion-electron system (eV)
  ---------------------------------------------------
  alpha Z        PSCENC =        24.64986564
  Ewald energy   TEWEN  =      7259.79945079
  -Hartree energ DENC   =    -10049.94955205
  -exchange      EXHF   =         0.00000000
  -V(xc)+E(xc)   XCENC  =        67.88302251
  PAW double counting   =      1593.96183011    -1563.05900163
  entropy T*S    EENTRO =         0.00000000
  eigenvalues    EBANDS =      -568.35122912
  atomic energy  EATOM  =      3143.46690034
  Solvation  Ediel_sol  =         0.00000000
  ---------------------------------------------------
  free energy    TOTEN  =       -91.59871342 eV

  energy without entropy =      -91.59871342  energy(sigma->0) =      -91.59871342


--------------------------------------------------------------------------------------------------------




--------------------------------------- Iteration      1(  20)  ---------------------------------------


    POTLOK:  cpu time   51.8640: real time   52.1616
    SETDIJ:  cpu time    0.0400: real time    0.0408
     EDDAV:  cpu time   29.3600: real time   30.9964
 BZINTS: Fermi energy: -4.393423; 61.000000 electrons
         Band energy:-566.853256;  BLOECHL correction: -0.008465
       DOS:  cpu time    0.0080: real time    0.0074
    CHARGE:  cpu time    2.0640: real time    2.0844
    MIXING:  cpu time    0.0520: real time    0.0530
    --------------------------------------------
      LOOP:  cpu time   83.3880: real time   85.3436

 eigenvalue-minimisations  :  1360
 total energy-change (2. order) : 0.1911931E+01  (-0.1465307E+03)
 number of electron      61.0000003 magnetization       6.6776950
 augmentation part        2.2665500 magnetization       5.3361097

 Broyden mixing:
  rms(total) = 0.18569E+01    rms(broyden)= 0.18286E+01
  rms(prec ) = 0.18954E+01
  weight for this iteration     100.00

 eigenvalues of (default mixing * dielectric matrix)
  average eigenvalue GAMMA=   0.3001
  0.6985  0.7739  0.5430  0.5430  0.4159  0.4159  0.2908  0.2908  0.2481  0.2481
  0.0315  0.0011  0.0002  0.0004  0.0003

 Free energy of the ion-electron system (eV)
  ---------------------------------------------------
  alpha Z        PSCENC =        24.64986564
  Ewald energy   TEWEN  =      7259.79945079
  -Hartree energ DENC   =    -10049.95678502
  -exchange      EXHF   =         0.00000000
  -V(xc)+E(xc)   XCENC  =        68.30208252
  PAW double counting   =      1593.95590480    -1563.05094564
  entropy T*S    EENTRO =         0.00000000
  eigenvalues    EBANDS =      -566.85325634
  atomic energy  EATOM  =      3143.46690034
  Solvation  Ediel_sol  =         0.00000000
  ---------------------------------------------------
  free energy    TOTEN  =       -89.68678291 eV

  energy without entropy =      -89.68678291  energy(sigma->0) =      -89.68678291


--------------------------------------------------------------------------------------------------------




--------------------------------------- Iteration      1(  21)  ---------------------------------------


    POTLOK:  cpu time   52.1200: real time   52.4459
    SETDIJ:  cpu time    0.0400: real time    0.0405
     EDDAV:  cpu time   24.4240: real time   24.6669
 BZINTS: Fermi energy: -4.322289; 61.000000 electrons
         Band energy:-518.344696;  BLOECHL correction: -0.008317
       DOS:  cpu time    0.0280: real time    0.0306
    CHARGE:  cpu time    2.0720: real time    2.0921
    MIXING:  cpu time    0.0560: real time    0.0549
    --------------------------------------------
      LOOP:  cpu time   78.7400: real time   79.3310

 eigenvalue-minimisations  :  1056
 total energy-change (2. order) : 0.4843366E+02  (-0.6712173E+02)
 number of electron      61.0000004 magnetization       6.6781107
 augmentation part        2.6352047 magnetization       4.0839302

 Broyden mixing:
  rms(total) = 0.12491E+01    rms(broyden)= 0.12377E+01
  rms(prec ) = 0.12981E+01
  weight for this iteration     100.00

 eigenvalues of (default mixing * dielectric matrix)
  average eigenvalue GAMMA=   0.3637
  0.8297  0.8297  0.7811  0.5517  0.5517  0.4552  0.4552  0.3641  0.3641  0.3016
  0.3016  0.0315  0.0008  0.0005  0.0003  0.0002

 Free energy of the ion-electron system (eV)
  ---------------------------------------------------
  alpha Z        PSCENC =        24.64986564
  Ewald energy   TEWEN  =      7259.79945079
  -Hartree energ DENC   =    -10049.93179552
  -exchange      EXHF   =         0.00000000
  -V(xc)+E(xc)   XCENC  =        68.20314119
  PAW double counting   =      1593.94059133    -1563.03658117
  entropy T*S    EENTRO =         0.00000000
  eigenvalues    EBANDS =      -518.34469587
  atomic energy  EATOM  =      3143.46690034
  Solvation  Ediel_sol  =         0.00000000
  ---------------------------------------------------
  free energy    TOTEN  =       -41.25312328 eV

  energy without entropy =      -41.25312328  energy(sigma->0) =      -41.25312328


--------------------------------------------------------------------------------------------------------




--------------------------------------- Iteration      1(  22)  ---------------------------------------


    POTLOK:  cpu time   51.5640: real time   51.9797
    SETDIJ:  cpu time    0.0400: real time    0.0416
     EDDAV:  cpu time   26.0040: real time   26.4038
 BZINTS: Fermi energy: -4.330071; 61.000000 electrons
         Band energy:-518.330558;  BLOECHL correction: -0.008016
       DOS:  cpu time    0.0040: real time    0.0074
    CHARGE:  cpu time    2.0680: real time    2.0731
    MIXING:  cpu time    0.0440: real time    0.0573
    --------------------------------------------
      LOOP:  cpu time   79.7240: real time   80.5629

 eigenvalue-minimisations  :  1136
 total energy-change (2. order) :-0.2685613E+00  (-0.3830509E-02)
 number of electron      61.0000004 magnetization       6.6835827
 augmentation part        2.6406256 magnetization       4.1084765

 Broyden mixing:
  rms(total) = 0.12447E+01    rms(broyden)= 0.12443E+01
  rms(prec ) = 0.13065E+01
  weight for this iteration     100.00

 eigenvalues of (default mixing * dielectric matrix)
  average eigenvalue GAMMA=   0.3422
  0.8262  0.8262  0.7812  0.5518  0.5518  0.4554  0.4554  0.3643  0.3643  0.3020
  0.3020  0.0315  0.0038  0.0008  0.0002  0.0005  0.0003

 Free energy of the ion-electron system (eV)
  ---------------------------------------------------
  alpha Z        PSCENC =        24.64986564
  Ewald energy   TEWEN  =      7259.79945079
  -Hartree energ DENC   =    -10049.92999562
  -exchange      EXHF   =         0.00000000
  -V(xc)+E(xc)   XCENC  =        67.92016629
  PAW double counting   =      1593.94963428    -1563.04714809
  entropy T*S    EENTRO =         0.00000000
  eigenvalues    EBANDS =      -518.33055826
  atomic energy  EATOM  =      3143.46690034
  Solvation  Ediel_sol  =         0.00000000
[...]
     34      -0.6702      0.00000
     35      -0.5230      0.00000
     36      -0.2944      0.00000
     37       0.0223      0.00000
     38       1.2589      0.00000
     39       1.3358      0.00000
     40       1.8191      0.00000
     41       2.1670      0.00000
     42       2.3768      0.00000
     43       2.8532      0.00000
     44       3.1925      0.00000
     45       3.6579      0.00000
     46       4.0620      0.00000
     47       4.1289      0.00000
     48       4.3750      0.00000

 k-point     5 :      -0.4000    0.2000    0.0000
  band No.  band energies     occupation 
      1     -17.7954      1.00000
      2     -16.4487      1.00000
      3     -16.0873      1.00000
      4     -15.7506      1.00000
      5     -15.4793      1.00000
      6     -15.2634      1.00000
      7     -12.0453      1.00000
      8     -10.4697      1.00000
      9      -8.6890      1.00000
     10      -8.2352      1.00000
     11      -7.7223      1.00000
     12      -7.1656      1.00000
     13      -7.0118      1.00000
     14      -6.5067      1.00000
     15      -6.3527      1.00000
     16      -6.2767      1.00000
     17      -6.0225      1.00000
     18      -5.6756      1.00000
     19      -5.6148      1.00000
     20      -5.2711      1.00000
     21      -5.2305      1.00000
     22      -4.3700      1.00000
     23      -4.3442      1.00000
     24      -4.1376      1.00000
     25      -4.0314      1.00000
     26      -3.2879      1.00000
     27      -2.7945      1.00000
     28      -2.6825      1.00000
     29      -2.4562      1.00000
     30      -2.2213      0.75833
     31      -2.1847      0.00000
     32      -1.5258      0.00000
     33      -0.9794      0.00000
     34      -0.8244      0.00000
     35      -0.5311      0.00000
     36      -0.3915      0.00000
     37       0.1307      0.00000
     38       0.7805      0.00000
     39       1.2305      0.00000
     40       1.8142      0.00000
     41       1.8642      0.00000
     42       1.9607      0.00000
     43       3.4236      0.00000
     44       3.5807      0.00000
     45       3.5908      0.00000
     46       3.8322      0.00000
     47       4.0823      0.00000
     48       4.6688      0.00000


--------------------------------------------------------------------------------------------------------


 soft charge-density along one line, spin component           1
         0         1         2         3         4         5         6         7         8         9
 total charge-density along one line

 soft charge-density along one line, spin component           2
         0         1         2         3         4         5         6         7         8         9
 total charge-density along one line

 pseudopotential strength for first ion, spin component:           1
-10.049  -0.068  -0.000   0.017   0.000   0.635   0.020   0.000
 -0.068 -10.158   0.000   0.000   0.017   0.020   0.668  -0.000
 -0.000   0.000 -10.249   0.000   0.000   0.000  -0.000   0.692
  0.017   0.000   0.000 -10.158   0.068  -0.005  -0.000  -0.000
  0.000   0.017   0.000   0.068 -10.049  -0.000  -0.005  -0.000
  0.635   0.020   0.000  -0.005  -0.000   0.553  -0.007  -0.000
  0.020   0.668  -0.000  -0.000  -0.005  -0.007   0.543   0.000
  0.000  -0.000   0.692  -0.000  -0.000  -0.000   0.000   0.537
 -0.005  -0.000  -0.000   0.668  -0.020   0.002   0.000   0.000
 -0.000  -0.005  -0.000  -0.020   0.635   0.000   0.002   0.000
 -0.000  -0.000   0.026  -0.000   0.000  -0.000  -0.000  -0.006
  0.000   0.000  -0.003   0.000  -0.000  -0.000  -0.000   0.001
 -0.002  -0.004   0.000  -0.000   0.001   0.001   0.002  -0.000
 -0.000  -0.000  -0.003  -0.000  -0.000  -0.000   0.000   0.001
  0.001  -0.000   0.000  -0.004   0.002   0.000  -0.000  -0.000
  0.001   0.001  -0.000   0.000  -0.002  -0.000  -0.000   0.000
  0.000   0.000  -0.001   0.000   0.000  -0.000  -0.000   0.000
 -0.002   0.000  -0.000   0.001  -0.001   0.000  -0.000   0.000
 pseudopotential strength for first ion, spin component:           2
 -9.757  -0.068  -0.000   0.008   0.000   0.548   0.021   0.000
 -0.068  -9.924   0.000   0.000   0.008   0.021   0.596  -0.000
 -0.000   0.000  -9.715   0.000   0.000   0.000  -0.000   0.535
  0.008   0.000   0.000  -9.924   0.068  -0.003  -0.000  -0.000
  0.000   0.008   0.000   0.068  -9.757  -0.000  -0.003  -0.000
  0.548   0.021   0.000  -0.003  -0.000   0.579  -0.007  -0.000
  0.021   0.596  -0.000  -0.000  -0.003  -0.007   0.565   0.000
  0.000  -0.000   0.535  -0.000  -0.000  -0.000   0.000   0.583
 -0.003  -0.000  -0.000   0.596  -0.021   0.001   0.000   0.000
 -0.000  -0.003  -0.000  -0.021   0.548   0.000   0.001   0.000
 -0.000  -0.000   0.007  -0.000   0.000  -0.000  -0.000  -0.002
  0.000   0.000  -0.001   0.000  -0.000  -0.000  -0.000   0.000
 -0.001  -0.004   0.000  -0.000   0.003   0.001   0.001  -0.000
 -0.000  -0.000  -0.002  -0.000  -0.000  -0.000   0.000   0.001
  0.003  -0.000   0.000  -0.004   0.001  -0.000  -0.000  -0.000
  0.001   0.001  -0.000   0.000  -0.002  -0.000  -0.000   0.000
  0.000   0.000  -0.001   0.000   0.000  -0.000  -0.000   0.000
 -0.002   0.000  -0.000   0.001  -0.001   0.000  -0.000   0.000
 total augmentation occupancy for first ion, spin component:           1
  1.522  -0.357   0.000   0.072  -0.000   0.157   0.220   0.000  -0.036   0.000  -0.000   0.000  -0.026   0.000   0.014   0.000
 -0.357   1.256  -0.000  -0.000   0.072   0.206   0.344   0.000   0.000  -0.033   0.000   0.000  -0.030   0.000   0.005   0.003
  0.000  -0.000   1.620  -0.000  -0.000   0.000   0.000  -0.034   0.000  -0.000  -0.018   0.014  -0.000   0.004  -0.000   0.000
  0.072  -0.000  -0.000   1.256   0.357  -0.033  -0.000   0.000   0.344  -0.206   0.000   0.000  -0.005   0.000  -0.030   0.000
 -0.000   0.072  -0.000   0.357   1.522  -0.000  -0.036  -0.000  -0.220   0.157   0.000  -0.000   0.014  -0.000   0.026   0.000
  0.157   0.206   0.000  -0.033  -0.000   0.174   0.103   0.000  -0.017  -0.000   0.000  -0.000   0.001  -0.000   0.022   0.000
  0.220   0.344   0.000  -0.000  -0.036   0.103   0.273   0.000  -0.000  -0.017  -0.000   0.000  -0.013  -0.000  -0.004   0.001
  0.000   0.000  -0.034   0.000  -0.000   0.000   0.000   0.141   0.000  -0.000   0.038  -0.015  -0.000  -0.011   0.000   0.000
 -0.036   0.000   0.000   0.344  -0.220  -0.017  -0.000   0.000   0.273  -0.103   0.000   0.000   0.004  -0.000  -0.013  -0.001
  0.000  -0.033  -0.000  -0.206   0.157  -0.000  -0.017  -0.000  -0.103   0.174  -0.000   0.000   0.022   0.000  -0.001  -0.004
 -0.000   0.000  -0.018   0.000   0.000   0.000  -0.000   0.038   0.000  -0.000   1.114  -0.337   0.000  -0.037   0.000   0.000
  0.000  -0.000   0.014   0.000  -0.000  -0.000  -0.000  -0.015   0.000   0.000  -0.337   0.171   0.000   0.008   0.000  -0.000
 -0.026  -0.030  -0.000  -0.005   0.014   0.001  -0.013  -0.000   0.004   0.022   0.000   0.000   0.213  -0.000  -0.000  -0.016
  0.000   0.000   0.004   0.000  -0.000  -0.000  -0.000  -0.011  -0.000   0.000  -0.037   0.008  -0.000   0.221   0.000   0.000
  0.014   0.005  -0.000  -0.030   0.026   0.022  -0.004   0.000  -0.013  -0.001   0.000  -0.000  -0.000   0.000   0.213   0.000
  0.000   0.003   0.000   0.000   0.000   0.000   0.001   0.000  -0.001  -0.004   0.000   0.000  -0.016   0.000   0.000   0.002
  0.000  -0.000   0.003   0.000  -0.000   0.000   0.000   0.001   0.000  -0.000   0.003  -0.001   0.000  -0.018  -0.000  -0.000
  0.000  -0.000   0.000   0.003  -0.000  -0.004   0.001  -0.000   0.001  -0.000  -0.000   0.000  -0.000  -0.000  -0.016  -0.000
 total augmentation occupancy for first ion, spin component:           2
  0.072  -0.005   0.000  -0.007  -0.000  -0.031   0.007  -0.000   0.001  -0.001   0.000   0.000   0.001   0.000   0.006  -0.000
 -0.005   0.026  -0.000  -0.000  -0.007   0.012  -0.015   0.000  -0.001  -0.001  -0.000   0.000  -0.001   0.000  -0.003  -0.000
  0.000  -0.000   0.303  -0.000  -0.000  -0.000   0.000  -0.091   0.000   0.000   0.018   0.019  -0.000   0.004   0.000  -0.000
 -0.007  -0.000  -0.000   0.026   0.005  -0.001   0.001   0.000  -0.015  -0.012   0.000   0.000   0.003   0.000  -0.001   0.000
 -0.000  -0.007  -0.000   0.005   0.072   0.001   0.001   0.000  -0.007  -0.031  -0.000  -0.000   0.006  -0.000  -0.001   0.000
 -0.031   0.012  -0.000  -0.001   0.001  -0.004  -0.008   0.000   0.001  -0.000   0.000  -0.000   0.001  -0.000  -0.001  -0.000
  0.007  -0.015   0.000   0.001   0.001  -0.008  -0.010  -0.000   0.000   0.001   0.000  -0.000   0.001  -0.000   0.001  -0.000
 -0.000   0.000  -0.091   0.000   0.000   0.000  -0.000   0.016  -0.000  -0.000   0.000  -0.003   0.000  -0.001  -0.000  -0.000
  0.001  -0.001   0.000  -0.015  -0.007   0.001   0.000  -0.000  -0.010   0.008  -0.000   0.000  -0.001   0.000   0.001  -0.000
 -0.001  -0.001   0.000  -0.012  -0.031  -0.000   0.001  -0.000   0.008  -0.004  -0.000   0.000  -0.001   0.000  -0.001   0.000
  0.000  -0.000   0.018   0.000  -0.000   0.000  -0.000   0.000  -0.000  -0.000   0.018   0.014   0.000   0.000   0.000   0.000
  0.000   0.000   0.019   0.000  -0.000  -0.000  -0.000  -0.003   0.000   0.000   0.014  -0.009   0.000  -0.000   0.000   0.000
  0.001  -0.001  -0.000   0.003   0.006   0.001   0.001   0.000  -0.001  -0.001   0.000   0.000   0.004   0.000  -0.000   0.000
  0.000   0.000   0.004  -0.000  -0.000  -0.000   0.000  -0.001  -0.000   0.000   0.000  -0.000   0.000   0.003   0.000  -0.000
  0.006  -0.003   0.000  -0.001  -0.001  -0.001   0.001  -0.000   0.001  -0.001   0.000   0.000  -0.000   0.000   0.004   0.000
 -0.000  -0.000  -0.000   0.000   0.000  -0.000  -0.000  -0.000  -0.000   0.000   0.000   0.000   0.000  -0.000   0.000  -0.000
  0.000   0.000   0.001   0.000  -0.000  -0.000   0.000  -0.000  -0.000   0.000  -0.000   0.000  -0.000   0.000   0.000   0.000
  0.000  -0.000   0.000  -0.000   0.000   0.000   0.000   0.000  -0.000   0.000   0.000   0.000  -0.000   0.000   0.000   0.000


------------------------ aborting loop because EDIFF is reached ----------------------------------------





 total charge     

# of ion       s       p       d       tot
------------------------------------------
    1        0.391   0.534   6.414   7.339
    2        0.386   0.522   6.400   7.309
    3        1.137   1.185   0.142   2.464
    4        1.016   1.444   0.000   2.460
    5        1.373   2.316   0.000   3.689
    6        1.361   2.324   0.000   3.684
    7        1.371   2.318   0.000   3.689
    8        1.369   2.314   0.000   3.683
    9        1.366   2.333   0.000   3.699
   10        1.369   2.316   0.000   3.685
--------------------------------------------------
tot         11.138  17.606  12.956  41.701



 magnetization (x)

# of ion       s       p       d       tot
------------------------------------------
    1        0.004   0.006   0.497   0.506
    2        0.004   0.006   0.540   0.550
    3       -0.002   0.007   0.000   0.005
    4       -0.003   0.002   0.000  -0.001
    5       -0.000  -0.005   0.000  -0.005
    6       -0.001   0.002   0.000   0.001
    7       -0.001  -0.004   0.000  -0.004
    8       -0.001  -0.010   0.000  -0.011
    9       -0.001  -0.006   0.000  -0.007
   10       -0.001  -0.008   0.000  -0.009
--------------------------------------------------
tot         -0.001  -0.010   1.037   1.026

    CHARGE:  cpu time    2.0760: real time    2.0812
    FORLOC:  cpu time    0.0640: real time    0.0647
    FORNL :  cpu time    6.9800: real time    6.9870
    STRESS:  cpu time   20.9040: real time   20.9493
    FORCOR:  cpu time   52.4520: real time   52.6640
    FORHAR:  cpu time    0.3520: real time    0.3517
    MIXING:  cpu time    0.2600: real time    0.2593
    OFIELD:  cpu time    0.0000: real time    0.0001

  FORCE on cell =-STRESS in cart. coord.  units (eV):
  Direction    XX          YY          ZZ          XY          YZ          ZX
  --------------------------------------------------------------------------------------
  Alpha Z    38.95678    38.95678    38.95678
  Ewald   11553.38590 11553.38299-13605.80210    -0.00197    -0.00058    -0.00103
  Hartree 12024.30500 12024.30567-11699.44755    -0.00026     0.00005     0.00008
  E(xc)    -241.32335  -241.32335  -240.94898     0.00001     0.00000     0.00001
  Local  -24496.40153-24496.40080 24340.81874     0.00172     0.00033     0.00061
  n-local   452.29009   451.69220   460.77366    -0.27540     0.34358     0.46906
  augment   -35.19961   -35.19951   -42.29313     0.00015     0.00004     0.00004
  Kinetic   704.74349   703.19482   748.39456    -1.48887     1.62566     1.56937
  Fock        0.00000     0.00000     0.00000     0.00000     0.00000     0.00000
  -------------------------------------------------------------------------------------
  Total      -0.31722    -0.31722     0.45197     0.00000     0.00000     0.00000
  in kB      -0.82906    -0.82906     1.18125     0.00000     0.00000     0.00000
  external pressure =       -0.16 kB  Pullay stress =        0.00 kB


 VOLUME and BASIS-vectors are now :
 -----------------------------------------------------------------------------
  energy-cutoff  :      520.00
  volume of cell :      613.03
      direct lattice vectors                 reciprocal lattice vectors
     5.850123281  0.000000005  0.000000000     0.170936569 -0.098690269 -0.000000000
     2.925061369  5.066355183 -0.000000000    -0.000000000  0.197380556  0.000000000
     0.000000000 -0.000000000 20.683341459    -0.000000000  0.000000000  0.048348087

  length of vectors
     5.850123281  5.850122978 20.683341459     0.197380545  0.197380556  0.048348087


 FORCES acting on ions
    electron-ion (+dipol)            ewald-force                    non-local-force                 convergence-correction
 -----------------------------------------------------------------------------------------------
   -.155E-03 -.847E-04 0.223E+00   0.702E-03 0.415E-03 -.117E+01   -.332E-17 -.542E-19 0.855E+00   0.290E-06 0.126E-06 0.699E-02
   0.145E-03 0.106E-03 -.114E+01   -.681E-03 -.403E-03 0.157E+00   0.709E-17 -.549E-19 0.866E+00   -.468E-07 -.281E-07 0.565E-02
   -.186E-04 -.407E-04 0.274E+03   -.202E-03 -.113E-03 -.272E+03   -.233E-17 0.106E-16 -.334E+01   0.107E-07 0.536E-08 0.125E+00
   0.486E-04 0.108E-04 -.342E+03   0.289E-03 0.162E-03 0.337E+03   0.147E-16 0.136E-16 0.486E+01   0.124E-07 0.610E-08 -.168E+00
   -.570E+01 0.154E+01 -.529E+03   0.624E+00 -.155E+01 0.534E+03   0.495E+01 -.738E-01 -.418E+01   -.769E-01 0.189E-01 -.323E+00
   0.418E+01 0.417E+01 -.529E+03   -.165E+01 0.234E+00 0.534E+03   -.254E+01 -.425E+01 -.418E+01   0.548E-01 0.572E-01 -.323E+00
   0.151E+01 -.571E+01 -.529E+03   0.103E+01 0.132E+01 0.534E+03   -.241E+01 0.433E+01 -.418E+01   0.221E-01 -.761E-01 -.323E+00
   0.305E+02 0.178E+01 0.550E+03   -.263E+02 -.180E+01 -.555E+03   -.437E+01 -.696E-01 0.440E+01   0.683E-01 0.206E-01 0.336E+00
   -.137E+02 -.273E+02 0.550E+03   0.116E+02 0.237E+02 -.555E+03   0.212E+01 0.382E+01 0.440E+01   -.163E-01 -.694E-01 0.336E+00
   -.168E+02 0.255E+02 0.550E+03   0.147E+02 -.219E+02 -.555E+03   0.225E+01 -.375E+01 0.440E+01   -.520E-01 0.488E-01 0.336E+00
 -----------------------------------------------------------------------------------------------
   0.108E-03 0.354E-04 -.392E+01   0.178E-13 -.178E-13 0.000E+00   0.888E-15 0.133E-14 0.391E+01   0.377E-06 0.155E-06 0.100E-01


 POSITION                                       TOTAL-FORCE (eV/Angst)
 -----------------------------------------------------------------------------------
      2.92506      1.68878     10.33077         0.000000      0.000000     -0.084855
      5.85013      3.37757     10.33294         0.000000      0.000000     -0.113241
      0.00000     -0.00000      9.27060         0.000000      0.000000     -1.089191
      0.00000     -0.00000     11.51139         0.000000      0.000000      0.126457
      3.74551      0.00828     11.72772        -0.197104     -0.064716      0.299983
      1.05948      1.81852     11.72772         0.042506      0.203055      0.299983
      3.97021      3.23957     11.72772         0.154598     -0.138339      0.299983
      2.26886      0.00583      8.93880        -0.154110     -0.074632      0.086961
      1.79568      3.09854      8.93880         0.012422      0.170779      0.086961
      4.71064      1.96198      8.93880         0.141688     -0.096147      0.086961
 -----------------------------------------------------------------------------------
    total drift:                                0.000108      0.000036     -0.001117


--------------------------------------------------------------------------------------------------------



  FREE ENERGIE OF THE ION-ELECTRON SYSTEM (eV)
  ---------------------------------------------------
  free  energy   TOTEN  =       -49.29965112 eV

  energy  without entropy=      -49.29965112  energy(sigma->0) =      -49.29965112

 d Force = 0.7190753E-02[-0.335E-01, 0.479E-01]  d Energy =-0.6843473E-01 0.756E-01
 d Force =-0.5422088E+02[-0.544E+02,-0.540E+02]  d Ewald  = 0.8877401E+02-0.143E+03


--------------------------------------------------------------------------------------------------------


    POTLOK:  cpu time   52.7920: real time   52.8506


--------------------------------------------------------------------------------------------------------




--------------------------------------------------------------------------------------------------------


  
 reached required accuracy - stopping structural energy minimisation
     LOOP+:  cpu time 3250.1160: real time 3269.7650
    4ORBIT:  cpu time    0.0000: real time    0.0000



 total charge     

# of ion       s       p       d       tot
------------------------------------------
    1        0.391   0.534   6.414   7.339
    2        0.386   0.522   6.400   7.309
    3        1.137   1.185   0.142   2.464
    4        1.016   1.444   0.000   2.460
    5        1.373   2.316   0.000   3.689
    6        1.361   2.324   0.000   3.684
    7        1.371   2.318   0.000   3.689
    8        1.369   2.314   0.000   3.683
    9        1.366   2.333   0.000   3.699
   10        1.369   2.316   0.000   3.685
--------------------------------------------------
tot         11.138  17.606  12.956  41.701



 magnetization (x)

# of ion       s       p       d       tot
------------------------------------------
    1        0.004   0.006   0.497   0.506
    2        0.004   0.006   0.540   0.550
    3       -0.002   0.007   0.000   0.005
    4       -0.003   0.002   0.000  -0.001
    5       -0.000  -0.005   0.000  -0.005
    6       -0.001   0.002   0.000   0.001
    7       -0.001  -0.004   0.000  -0.004
    8       -0.001  -0.010   0.000  -0.011
    9       -0.001  -0.006   0.000  -0.007
   10       -0.001  -0.008   0.000  -0.009
--------------------------------------------------
tot         -0.001  -0.010   1.037   1.026

 BZINTS: Fermi energy: -2.221322; 60.971177 electrons
         Band energy:-476.328891;  BLOECHL correction: -0.001844

 total amount of memory used by VASP MPI-rank0   132545. kBytes
=======================================================================

   base      :      30000. kBytes
   nonlr-proj:      10060. kBytes
   fftplans  :      11247. kBytes
   grid      :      68332. kBytes
   one-center:        311. kBytes
   wavefun   :      12595. kBytes

  
  
 General timing and accounting informations for this job:
 ========================================================
  
                  Total CPU time used (sec):    20882.408
                            User time (sec):    20344.620
                          System time (sec):      537.788
                         Elapsed time (sec):    21061.541
  
                   Maximum memory used (kb):      395932.
                   Average memory used (kb):           0.
  
                          Minor page faults:     14654454
                          Major page faults:            7
                 Voluntary context switches:         1097
