 vasp.5.4.4.18Apr17-6-g9f103f2a35 (build May  1 2020 15:48:39) complex           
 executed on             LinuxGNU date 2020.07.03  22:05:09
 running on   16 total cores
 distrk:  each k-point on   16 cores,    1 groups
 distr:  one band on NCORES_PER_BAND=   1 cores,   16 groups


--------------------------------------------------------------------------------------------------------


 INCAR:
 POTCAR:   PAW_PBE Fe 06Sep2000                   
 POTCAR:   PAW_PBE Ge 05Jan2001                   
 POTCAR:   PAW_PBE Te 08Apr2002                   

 ----------------------------------------------------------------------------- 
|                                                                             |
|           W    W    AA    RRRRR   N    N  II  N    N   GGGG   !!!           |
|           W    W   A  A   R    R  NN   N  II  NN   N  G    G  !!!           |
|           W    W  A    A  R    R  N N  N  II  N N  N  G       !!!           |
|           W WW W  AAAAAA  RRRRR   N  N N  II  N  N N  G  GGG   !            |
|           WW  WW  A    A  R   R   N   NN  II  N   NN  G    G                |
|           W    W  A    A  R    R  N    N  II  N    N   GGGG   !!!           |
|                                                                             |
|      For optimal performance we recommend to set                            |
|        NCORE= 4 - approx SQRT( number of cores)                             |
|      NCORE specifies how many cores store one orbital (NPAR=cpu/NCORE).     |
|      This setting can  greatly improve the performance of VASP for DFT.     |
|      The default,   NCORE=1            might be grossly inefficient         |
|      on modern multi-core architectures or massively parallel machines.     |
|      Do your own testing !!!!                                               |
|      Unfortunately you need to use the default for GW and RPA calculations. |
|      (for HF NCORE is supported but not extensively tested yet)             |
|                                                                             |
 ----------------------------------------------------------------------------- 


 ----------------------------------------------------------------------------- 
|                                                                             |
|  ADVICE TO THIS USER RUNNING 'VASP/VAMP'   (HEAR YOUR MASTER'S VOICE ...):  |
|                                                                             |
|      You have switched on vdW-DFT.                                          |
|      This routine was written and supplied by Jiri Klimes.                  |
|      We recommed that you carefully read and cite the following             |
|      publication                                                            |
|      J. Klimes, D.R. Bowler, A. Michelides                                  |
|        J. Phys.: Cond Matt. 22 022201 (2010)                                |
|      J. Klimes, D.R. Bowler, A. Michelides                                  |
|        Phys. Rev. B. 83, 195131 (2011)                                      |
|      and references therein.                                                |
|                                                                             |
 ----------------------------------------------------------------------------- 

 POTCAR:   PAW_PBE Fe 06Sep2000                   
   VRHFIN =Fe:  d7 s1                                                           
   LEXCH  = PE                                                                  
   EATOM  =   594.4687 eV,   43.6922 Ry                                         
                                                                                
   TITEL  = PAW_PBE Fe 06Sep2000                                                
   LULTRA =        F    use ultrasoft PP ?                                      
   IUNSCR =        1    unscreen: 0-lin 1-nonlin 2-no                           
   RPACOR =    2.000    partial core radius                                     
   POMASS =   55.847; ZVAL   =    8.000    mass and valenz                      
   RCORE  =    2.300    outmost cutoff radius                                   
   RWIGS  =    2.460; RWIGS  =    1.302    wigner-seitz radius (au A)           
   ENMAX  =  267.883; ENMIN  =  200.912 eV                                      
   RCLOC  =    1.701    cutoff for local pot                                    
   LCOR   =        T    correct aug charges                                     
   LPAW   =        T    paw PP                                                  
   EAUG   =  511.368                                                            
   DEXC   =    -.022                                                            
   RMAX   =    2.817    core radius for proj-oper                               
   RAUG   =    1.300    factor for augmentation sphere                          
   RDEP   =    2.442    radius for radial grids                                 
   QCUT   =   -4.437; QGAM   =    8.874    optimization parameters              
                                                                                
   Description                                                                  
     l     E      TYP  RCUT    TYP  RCUT                                        
     2   .000     23  2.300                                                     
     2   .000     23  2.300                                                     
     0   .000     23  2.300                                                     
     0   .000     23  2.300                                                     
     1  -.200     23  2.300                                                     
     1   .000     23  2.300                                                     
     3   .000      7   .000                                                     
  local pseudopotential read in
  partial core-charges read in
  atomic valenz-charges read in
  non local Contribution for L=           2  read in
    real space projection operators read in
  non local Contribution for L=           2  read in
    real space projection operators read in
  non local Contribution for L=           0  read in
    real space projection operators read in
  non local Contribution for L=           0  read in
    real space projection operators read in
  non local Contribution for L=           1  read in
    real space projection operators read in
  non local Contribution for L=           1  read in
    real space projection operators read in
    PAW grid and wavefunctions read in

   number of l-projection  operators is LMAX  =           6
   number of lm-projection operators is LMMAX =          18

 POTCAR:   PAW_PBE Ge 05Jan2001                   
   VRHFIN =Ge: s2p2                                                             
   LEXCH  = PE                                                                  
   EATOM  =   104.9960 eV,    7.7170 Ry                                         
                                                                                
   TITEL  = PAW_PBE Ge 05Jan2001                                                
   LULTRA =        F    use ultrasoft PP ?                                      
   IUNSCR =        1    unscreen: 0-lin 1-nonlin 2-no                           
   RPACOR =    2.170    partial core radius                                     
   POMASS =   72.610; ZVAL   =    4.000    mass and valenz                      
   RCORE  =    2.300    outmost cutoff radius                                   
   RWIGS  =    2.300; RWIGS  =    1.217    wigner-seitz radius (au A)           
   ENMAX  =  173.807; ENMIN  =  130.355 eV                                      
   ICORE  =        3    local potential                                         
   LCOR   =        T    correct aug charges                                     
   LPAW   =        T    paw PP                                                  
   EAUG   =  385.843                                                            
   DEXC   =    -.138                                                            
   RMAX   =    3.497    core radius for proj-oper                               
   RAUG   =    1.300    factor for augmentation sphere                          
   RDEP   =    2.318    radius for radial grids                                 
   QCUT   =   -3.574; QGAM   =    7.148    optimization parameters              
                                                                                
   Description                                                                  
     l     E      TYP  RCUT    TYP  RCUT                                        
     0   .000     23  2.300                                                     
     0   .000     23  2.300                                                     
     1   .000     23  2.300                                                     
     1   .000     23  2.300                                                     
     2   .000     23  2.300                                                     
     3  -.100      7  2.300                                                     
  local pseudopotential read in
  partial core-charges read in
  atomic valenz-charges read in
  non local Contribution for L=           0  read in
    real space projection operators read in
  non local Contribution for L=           0  read in
    real space projection operators read in
  non local Contribution for L=           1  read in
    real space projection operators read in
  non local Contribution for L=           1  read in
    real space projection operators read in
  non local Contribution for L=           2  read in
    real space projection operators read in
    PAW grid and wavefunctions read in

   number of l-projection  operators is LMAX  =           5
   number of lm-projection operators is LMMAX =          13

 POTCAR:   PAW_PBE Te 08Apr2002                   
   VRHFIN =Te: s2p4                                                             
   LEXCH  = PE                                                                  
   EATOM  =   223.2721 eV,   16.4100 Ry                                         
                                                                                
   TITEL  = PAW_PBE Te 08Apr2002                                                
   LULTRA =        F    use ultrasoft PP ?                                      
   IUNSCR =        1    unscreen: 0-lin 1-nonlin 2-no                           
   RPACOR =    2.200    partial core radius                                     
   POMASS =  127.600; ZVAL   =    6.000    mass and valenz                      
   RCORE  =    2.300    outmost cutoff radius                                   
   RWIGS  =    2.900; RWIGS  =    1.535    wigner-seitz radius (au A)           
   ENMAX  =  174.982; ENMIN  =  131.236 eV                                      
   ICORE  =        3    local potential                                         
   LCOR   =        T    correct aug charges                                     
   LPAW   =        T    paw PP                                                  
   EAUG   =  368.792                                                            
   DEXC   =    -.169                                                            
   RMAX   =    3.486    core radius for proj-oper                               
   RAUG   =    1.300    factor for augmentation sphere                          
   RDEP   =    2.397    radius for radial grids                                 
   QCUT   =   -3.586; QGAM   =    7.172    optimization parameters              
                                                                                
   Description                                                                  
     l     E      TYP  RCUT    TYP  RCUT                                        
     0   .000     23  2.300                                                     
     0   .000     23  2.300                                                     
     1   .000     23  2.300                                                     
     1   .000     23  2.300                                                     
     2   .000     23  2.300                                                     
     3  -.100     23  2.300                                                     
  local pseudopotential read in
  partial core-charges read in
  atomic valenz-charges read in
  non local Contribution for L=           0  read in
    real space projection operators read in
  non local Contribution for L=           0  read in
    real space projection operators read in
  non local Contribution for L=           1  read in
    real space projection operators read in
  non local Contribution for L=           1  read in
    real space projection operators read in
  non local Contribution for L=           2  read in
    real space projection operators read in
    PAW grid and wavefunctions read in

   number of l-projection  operators is LMAX  =           5
   number of lm-projection operators is LMMAX =          13

 Optimization of the real space projectors (new method)

 maximal supplied QI-value         = 16.25
 optimisation between [QCUT,QGAM] = [ 11.54, 23.24] = [ 37.28,151.24] Ry 
 Optimized for a Real-space Cutoff    1.53 Angstroem

   l    n(q)    QCUT    max X(q) W(low)/X(q) W(high)/X(q)  e(spline) 
   2     10    11.539     4.378    0.86E-05    0.15E-04    0.46E-07
   2     10    11.539    23.237    0.11E-03    0.14E-03    0.22E-06
   0     11    11.539    17.641    0.19E-04    0.14E-05    0.18E-07
   0     11    11.539    50.908    0.43E-04    0.16E-04    0.30E-06
   1     10    11.539     6.148    0.11E-04    0.38E-05    0.26E-07
   1     10    11.539     8.345    0.44E-04    0.25E-04    0.11E-06
 Optimization of the real space projectors (new method)

 maximal supplied QI-value         = 16.25
 optimisation between [QCUT,QGAM] = [ 11.54, 23.24] = [ 37.28,151.24] Ry 
 Optimized for a Real-space Cutoff    1.28 Angstroem

   l    n(q)    QCUT    max X(q) W(low)/X(q) W(high)/X(q)  e(spline) 
   0      9    11.539     8.651    0.22E-04    0.16E-04    0.10E-07
   0      9    11.539    33.192    0.11E-03    0.16E-03    0.65E-07
   1      8    11.539     5.899    0.37E-04    0.28E-04    0.43E-07
   1      8    11.539    27.289    0.22E-03    0.28E-04    0.14E-06
   2      8    11.539     4.673    0.11E-03    0.18E-03    0.58E-07
 Optimization of the real space projectors (new method)

 maximal supplied QI-value         = 16.25
 optimisation between [QCUT,QGAM] = [ 11.54, 23.24] = [ 37.28,151.24] Ry 
 Optimized for a Real-space Cutoff    1.36 Angstroem

   l    n(q)    QCUT    max X(q) W(low)/X(q) W(high)/X(q)  e(spline) 
   0      9    11.539     7.090    0.13E-04    0.25E-05    0.51E-08
   0      9    11.539   101.654    0.53E-04    0.69E-04    0.12E-06
   1      9    11.539     5.276    0.20E-04    0.98E-05    0.24E-07
   1      9    11.539    81.891    0.24E-03    0.13E-04    0.15E-06
   2      9    11.539     5.599    0.30E-04    0.97E-04    0.54E-07

 ----------------------------------------------------------------------------- 
|                                                                             |
|  ADVICE TO THIS USER RUNNING 'VASP/VAMP'   (HEAR YOUR MASTER'S VOICE ...):  |
|                                                                             |
|      You enforced a specific xc-type in the INCAR file,                     |
|      a different type was found on the POTCAR file                          |
|          I HOPE YOU KNOW, WHAT YOU ARE  DOING                               |
|                                                                             |
 ----------------------------------------------------------------------------- 

 PAW_PBE Fe 06Sep2000                   :
 energy of atom  1       EATOM= -594.4687
 kinetic energy error for atom=    0.0026 (will be added to EATOM!!)
 PAW_PBE Ge 05Jan2001                   :
 energy of atom  2       EATOM= -104.9960
 kinetic energy error for atom=    0.0002 (will be added to EATOM!!)
 PAW_PBE Te 08Apr2002                   :
 energy of atom  3       EATOM= -223.2721
 kinetic energy error for atom=    0.0007 (will be added to EATOM!!)


 POSCAR: Fe2 Ge2 Te6                             
  positions in direct lattice
  No initial velocities read in
 exchange correlation table for  LEXCH =       42
   RHO(1)=    0.500       N(1)  =     2000
   RHO(2)=  100.500       N(2)  =     4000



--------------------------------------------------------------------------------------------------------


 ion  position               nearest neighbor table
   1  0.333  0.333  0.500-   6 2.78   5 2.78   7 2.78   8 2.78  10 2.78   9 2.78
   2  0.667  0.667  0.500-   9 2.78   8 2.78  10 2.78   5 2.78   7 2.78   6 2.78
   3  0.000  0.000  0.448-   4 2.43   8 2.63  10 2.63   9 2.63
   4  0.000  0.000  0.552-   3 2.43   5 2.63   7 2.63   6 2.63
   5  0.626  0.000  0.574-   4 2.63   1 2.78   2 2.78
   6  0.000  0.373  0.574-   4 2.63   1 2.78   2 2.78
   7  0.373  0.626  0.574-   4 2.63   1 2.78   2 2.78
   8  0.374  1.000  0.426-   3 2.63   2 2.78   1 2.78
   9  1.000  0.627  0.426-   3 2.63   2 2.78   1 2.78
  10  0.627  0.374  0.426-   3 2.63   2 2.78   1 2.78

  LATTYP: Found a hexagonal cell.
 ALAT       =     6.9077769333
 C/A-ratio  =     3.3939410937
  
  Lattice vectors:
  
 A1 = (   3.4538890000,  -5.9823100000,   0.0000000000)
 A2 = (  -6.9077770000,   0.0000000000,   0.0000000000)
 A3 = (   0.0000000000,   0.0000000000, -23.4445880000)


Analysis of symmetry for initial positions (statically):
=====================================================================
 Subroutine PRICEL returns:
 Original cell was already a primitive cell.
 

 Routine SETGRP: Setting up the symmetry group for a 
 hexagonal supercell.


 Subroutine GETGRP returns: Found  6 space group operations
 (whereof  6 operations were pure point group operations)
 out of a pool of 24 trial point group operations.


The static configuration has the point symmetry S_6 .


Analysis of symmetry for dynamics (positions and initial velocities):
=====================================================================
 Subroutine PRICEL returns:
 Original cell was already a primitive cell.
 

 Routine SETGRP: Setting up the symmetry group for a 
 hexagonal supercell.


 Subroutine GETGRP returns: Found  6 space group operations
 (whereof  6 operations were pure point group operations)
 out of a pool of 24 trial point group operations.


The dynamic configuration has the point symmetry S_6 .


Analysis of constrained symmetry for selective dynamics:
=====================================================================
 Subroutine PRICEL returns:
 Original cell was already a primitive cell.
 

 Routine SETGRP: Setting up the symmetry group for a 
 hexagonal supercell.


 Subroutine GETGRP returns: Found  6 space group operations
 (whereof  6 operations were pure point group operations)
 out of a pool of 24 trial point group operations.


The constrained configuration has the point symmetry S_6 .


Analysis of structural, dynamic, and magnetic symmetry:
=====================================================================
 Subroutine PRICEL returns:
 Original cell was already a primitive cell.
 

 Routine SETGRP: Setting up the symmetry group for a 
 hexagonal supercell.


 Subroutine GETGRP returns: Found  6 space group operations
 (whereof  6 operations were pure point group operations)
 out of a pool of 24 trial point group operations.


The magnetic configuration has the point symmetry S_6 .


 Subroutine INISYM returns: Found  6 space group operations
 (whereof  6 operations are pure point group operations),
 and found     1 'primitive' translations



 KPOINTS: Kpoints from vasprun.xml                

Automatic generation of k-mesh.
Space group operators:
 irot       det(A)        alpha          n_x          n_y          n_z        tau_x        tau_y        tau_z
    1     1.000000     0.000000     1.000000     0.000000     0.000000     0.000000     0.000000     0.000000
    2    -1.000000     0.000000     1.000000     0.000000     0.000000     0.000000     0.000000     0.000000
    3     1.000000   120.000000     0.000000     0.000000     1.000000     0.000000     0.000000     0.000000
    4    -1.000000   120.000000     0.000000     0.000000     1.000000     0.000000     0.000000     0.000000
    5     1.000000   120.000000     0.000000     0.000000    -1.000000     0.000000     0.000000     0.000000
    6    -1.000000   120.000000     0.000000     0.000000    -1.000000     0.000000     0.000000     0.000000
 
 Subroutine IBZKPT returns following result:
 ===========================================
 
 Found      5 irreducible k-points:
 
 Following reciprocal coordinates:
            Coordinates               Weight
  0.000000  0.000000  0.000000      1.000000
  0.200000  0.000000  0.000000      6.000000
  0.400000  0.000000  0.000000      6.000000
  0.400000  0.200000  0.000000      6.000000
 -0.400000  0.200000  0.000000      6.000000
 
 Following cartesian coordinates:
            Coordinates               Weight
  0.000000  0.000000  0.000000      1.000000
  0.028953 -0.016716  0.000000      6.000000
  0.057906 -0.033432  0.000000      6.000000
  0.057906  0.000000  0.000000      6.000000
 -0.057906  0.066864  0.000000      6.000000
 
 TETIRR: Found     15 inequivalent tetrahedra from      150


--------------------------------------------------------------------------------------------------------




 Dimension of arrays:
   k-points           NKPTS =      5   k-points in BZ     NKDIM =      5   number of bands    NBANDS=     48
   number of dos      NEDOS =    301   number of ions     NIONS =     10
   non local maximal  LDIM  =      6   non local SUM 2l+1 LMDIM =     18
   total plane-waves  NPLWV = 524880
   max r-space proj   IRMAX =   8238   max aug-charges    IRDMAX=  31706
   dimension x,y,z NGX =    54 NGY =   54 NGZ =  180
   dimension x,y,z NGXF=   108 NGYF=  108 NGZF=  360
   support grid    NGXF=   108 NGYF=  108 NGZF=  360
   ions per type =               2   2   6
   NGX,Y,Z   is equivalent  to a cutoff of  13.00, 13.00, 12.76 a.u.
   NGXF,Y,Z  is equivalent  to a cutoff of  25.99, 25.99, 25.53 a.u.

 SYSTEM =  unknown system                          
 POSCAR =  Fe2 Ge2 Te6                             

 Startparameter for this run:
   NWRITE =      2    write-flag & timer
   PREC   = accura    normal or accurate (medium, high low for compatibility)
   ISTART =      0    job   : 0-new  1-cont  2-samecut
   ICHARG =      2    charge: 1-file 2-atom 10-const
   ISPIN  =      2    spin polarized calculation?
   LNONCOLLINEAR =      F non collinear calculations
   LSORBIT =      F    spin-orbit coupling
   INIWAV =      1    electr: 0-lowe 1-rand  2-diag
   LASPH  =      F    aspherical Exc in radial PAW
   METAGGA=      F    non-selfconsistent MetaGGA calc.

 Electronic Relaxation 1
   ENCUT  =  520.0 eV  38.22 Ry    6.18 a.u.  12.84 12.84 43.59*2*pi/ulx,y,z
   ENINI  =  520.0     initial cutoff
   ENAUG  =  511.4 eV  augmentation charge cutoff
   NELM   =    400;   NELMIN=  2; NELMDL=  0     # of ELM steps 
   EDIFF  = 0.1E-03   stopping-criterion for ELM
   LREAL  =      T    real-space projection
   NLSPLINE    = F    spline interpolate recip. space projectors
   LCOMPAT=      F    compatible to vasp.4.4
   GGA_COMPAT  = T    GGA compatible to vasp.4.4-vasp.4.6
   LMAXPAW     = -100 max onsite density
   LMAXMIX     =    2 max onsite mixed and CHGCAR
   VOSKOWN=      0    Vosko Wilk Nusair interpolation
   ROPT   =   -0.00025  -0.00025  -0.00025
 Ionic relaxation
   EDIFFG = 0.1E-02   stopping-criterion for IOM
   NSW    =     99    number of steps for IOM
   NBLOCK =      1;   KBLOCK =     99    inner block; outer block 
   IBRION =      2    ionic relax: 0-MD 1-quasi-New 2-CG
   NFREE  =      1    steps in history (QN), initial steepest desc. (CG)
   ISIF   =      3    stress and relaxation
   IWAVPR =     11    prediction:  0-non 1-charg 2-wave 3-comb
   ISYM   =      2    0-nonsym 1-usesym 2-fastsym
   LCORR  =      T    Harris-Foulkes like correction to forces

   POTIM  = 0.5000    time-step for ionic-motion
   TEIN   =    0.0    initial temperature
   TEBEG  =    0.0;   TEEND  =   0.0 temperature during run
   SMASS  =  -3.00    Nose mass-parameter (am)
   estimated Nose-frequenzy (Omega)   =  0.10E-29 period in steps =****** mass=  -0.109E-26a.u.
   SCALEE = 1.0000    scale energy and forces
   NPACO  =    256;   APACO  = 16.0  distance and # of slots for P.C.
   PSTRESS=    0.0 pullay stress

  Mass of Ions in am
   POMASS =  55.85 72.61127.60
  Ionic Valenz
   ZVAL   =   8.00  4.00  6.00
  Atomic Wigner-Seitz radii
   RWIGS  =  -1.00 -1.00 -1.00
  virtual crystal weights 
   VCA    =   1.00  1.00  1.00
   NELECT =      60.0000    total number of electrons
   NUPDOWN=      -1.0000    fix difference up-down

 DOS related values:
   EMIN   =  10.00;   EMAX   =-10.00  energy-range for DOS
   EFERMI =   0.00
   ISMEAR =    -5;   SIGMA  =   0.05  broadening in eV -4-tet -1-fermi 0-gaus

 Electronic relaxation 2 (details)
   IALGO  =     38    algorithm
   LDIAG  =      T    sub-space diagonalisation (order eigenvalues)
   LSUBROT=      F    optimize rotation matrix (better conditioning)
   TURBO    =      0    0=normal 1=particle mesh
   IRESTART =      0    0=no restart 2=restart with 2 vectors
   NREBOOT  =      0    no. of reboots
   NMIN     =      0    reboot dimension
   EREF     =   0.00    reference energy to select bands
   IMIX   =      4    mixing-type and parameters
     AMIX     =   0.40;   BMIX     =  1.00
     AMIX_MAG =   1.60;   BMIX_MAG =  1.00
     AMIN     =   0.01
     WC   =   100.;   INIMIX=   1;  MIXPRE=   1;  MAXMIX= -45

 Intra band minimization:
   WEIMIN = 0.0010     energy-eigenvalue tresh-hold
   EBREAK =  0.52E-06  absolut break condition
   DEPER  =   0.30     relativ break condition  

   TIME   =   0.40     timestep for ELM

  volume/ion in A,a.u.               =      96.88       653.80
  Fermi-wavevector in a.u.,A,eV,Ry     =   0.647702  1.223979  5.707889  0.419518
  Thomas-Fermi vector in A             =   1.716096

 Write flags
   LWAVE        =      F    write WAVECAR
   LDOWNSAMPLE  =      F    k-point downsampling of WAVECAR
   LCHARG       =      T    write CHGCAR
   LVTOT        =      F    write LOCPOT, total local potential
   LVHAR        =      F    write LOCPOT, Hartree potential only
   LELF         =      F    write electronic localiz. function (ELF)
   LORBIT       =     11    0 simple, 1 ext, 2 COOP (PROOUT), +10 PAW based schemes


 Dipole corrections
   LMONO  =      F    monopole corrections only (constant potential shift)
   LDIPOL =      F    correct potential (dipole corrections)
   IDIPOL =      0    1-x, 2-y, 3-z, 4-all directions 
   EPSILON=  1.0000000 bulk dielectric constant

 Exchange correlation treatment:
   GGA     =    BO    GGA type
   LEXCH   =    42    internal setting for exchange type
   VOSKOWN=      0    Vosko Wilk Nusair interpolation
   LHFCALC =     F    Hartree Fock is set to
   LHFONE  =     F    Hartree Fock one center treatment
   AEXX    =    0.0000 exact exchange contribution

 vdW DFT:
   LUSE_VDW   =     T    switch on vdW DFT
   Zab_VDW    =-.8491    correlation parameter
   PARAM1     =0.1833
   PARAM2     =0.2200
   PARAM3     =0.0000
   -- rVV10 --
   BPARAM     = 6.3000
   CPARAM     = 0.0093

 Linear response parameters
   LEPSILON=     F    determine dielectric tensor
   LRPA    =     F    only Hartree local field effects (RPA)
   LNABLA  =     F    use nabla operator in PAW spheres
   LVEL    =     F    velocity operator in full k-point grid
   LINTERFAST=   F  fast interpolation
   KINTER  =     0    interpolate to denser k-point grid
   CSHIFT  =0.1000    complex shift for real part using Kramers Kronig
   OMEGAMAX=  -1.0    maximum frequency
   DEG_THRESHOLD= 0.2000000E-02 threshold for treating states as degnerate
   RTIME   =   -0.100 relaxation time in fs
  (WPLASMAI=    0.000 imaginary part of plasma frequency in eV, 0.658/RTIME)
   DFIELD  = 0.0000000 0.0000000 0.0000000 field for delta impulse in time

 Orbital magnetization related:
   ORBITALMAG=     F  switch on orbital magnetization
   LCHIMAG   =     F  perturbation theory with respect to B field
   DQ        =  0.001000  dq finite difference perturbation B field
   LLRAUG    =     F  two centre corrections for induced B field



--------------------------------------------------------------------------------------------------------


 conjugate gradient relaxation of ions
   using selective dynamics as specified on POSCAR
 charge density and potential will be updated during run
 spin polarized calculation
 Variant of blocked Davidson
 Davidson routine will perform the subspace rotation
 perform sub-space diagonalisation
    after iterative eigenvector-optimisation
 modified Broyden-mixing scheme, WC =      100.0
 initial mixing is a Kerker type mixing with AMIX =  0.4000 and BMIX =      1.0000
 Hartree-type preconditioning will be used
 using additional bands           18
 real space projection scheme for non local part
 use partial core corrections
 calculate Harris-corrections to forces   (improved forces if not selfconsistent)
 use gradient corrections 
 use of overlap-Matrix (Vanderbilt PP)
 Fermi weights with tetrahedron method with Bloechl corrections


--------------------------------------------------------------------------------------------------------


  energy-cutoff  :      520.00
  volume of cell :      968.84
      direct lattice vectors                 reciprocal lattice vectors
     6.907777000 -0.000000000  0.000000000     0.144764372 -0.083579742  0.000000000
     3.453888000  5.982310000  0.000000000     0.000000000  0.167159509 -0.000000000
     0.000000000  0.000000000 23.444588000    -0.000000000  0.000000000  0.042653767

  length of vectors
     6.907777000  6.907776433 23.444588000     0.167159495  0.167159509  0.042653767



 k-points in units of 2pi/SCALE and weight: Kpoints from vasprun.xml                
   0.00000000  0.00000000  0.00000000       0.040
   0.02895287 -0.01671595  0.00000000       0.240
   0.05790575 -0.03343190  0.00000000       0.240
   0.05790575  0.00000000  0.00000000       0.240
  -0.05790575  0.06686380  0.00000000       0.240

 k-points in reciprocal lattice and weights: Kpoints from vasprun.xml                
   0.00000000  0.00000000  0.00000000       0.040
   0.20000000  0.00000000  0.00000000       0.240
   0.40000000  0.00000000  0.00000000       0.240
   0.40000000  0.20000000  0.00000000       0.240
  -0.40000000  0.20000000  0.00000000       0.240

 position of ions in fractional coordinates (direct lattice) 
   0.33333300  0.33333300  0.49992500
   0.66666700  0.66666700  0.50007500
   0.00000000  0.00000000  0.44821600
   0.00000000  0.00000000  0.55178400
   0.62635700  0.00042000  0.57375200
   0.00042000  0.37322400  0.57375200
   0.37322400  0.62635700  0.57375200
   0.37364300  0.99958000  0.42624800
   0.99958000  0.62677600  0.42624800
   0.62677600  0.37364300  0.42624800

 position of ions in cartesian coordinates  (Angst):
   3.45388488  1.99410134 11.72053566
   6.90778012  3.98820866 11.72405234
   0.00000000  0.00000000 10.50823946
   0.00000000  0.00000000 12.93634854
   4.32818511  0.00251257 13.45137925
   1.29197516  2.23274167 13.45137925
   4.74151509  3.74706174 13.45137925
   6.03347989  5.97979743  9.99320875
   9.06968984  3.74956833  9.99320875
   5.62014991  2.23524826  9.99320875



--------------------------------------------------------------------------------------------------------


 k-point  1 :   0.0000 0.0000 0.0000  plane waves:   26073
 k-point  2 :   0.2000 0.0000 0.0000  plane waves:   26070
 k-point  3 :   0.4000 0.0000 0.0000  plane waves:   26086
 k-point  4 :   0.4000 0.2000 0.0000  plane waves:   26085
 k-point  5 :  -0.4000 0.2000 0.0000  plane waves:   26115

 maximum and minimum number of plane-waves per node :     26115    26070

 maximum number of plane-waves:     26115
 maximum index in each direction: 
   IXMAX=   13   IYMAX=   12   IZMAX=   43
   IXMIN=  -13   IYMIN=  -13   IZMIN=  -43


 serial   3D FFT for wavefunctions
 parallel 3D FFT for charge:
    minimum data exchange during FFTs selected (reduces bandwidth)


 total amount of memory used by VASP MPI-rank0   129122. kBytes
=======================================================================

   base      :      30000. kBytes
   nonlr-proj:       8812. kBytes
   fftplans  :      11247. kBytes
   grid      :      66142. kBytes
   one-center:        311. kBytes
   wavefun   :      12610. kBytes

     INWAV:  cpu time    0.0000: real time    0.0004
 Broyden mixing: mesh for mixing (old mesh)
   NGX = 25   NGY = 25   NGZ = 87
  (NGX  =108   NGY  =108   NGZ  =360)
  gives a total of  54375 points

 initial charge density was supplied:
 charge density of overlapping atoms calculated
 number of electron      60.0000000 magnetization      12.0600000
 keeping initial charge density in first step


--------------------------------------------------------------------------------------------------------


 Maximum index for non-local projection operator         7925
 Maximum index for augmentation-charges         2278 (set IRDMAX)


--------------------------------------------------------------------------------------------------------


 First call to EWALD:  gamma=   0.179
 Maximum number of real-space cells 4x 4x 1
 Maximum number of reciprocal cells 2x 2x 6

    FEWALD:  cpu time    0.0040: real time    0.0015


--------------------------------------- Iteration      1(   1)  ---------------------------------------


vdW kernel read from vdw_kernel.bindat
  0.0000  0.2424  0.5071  0.7962  1.1119  1.4567  1.8333  2.2446  2.6937  3.1842
  3.7199  4.3049  4.9438  5.6415  6.4036  7.2358  8.1446  9.1372 10.2212 11.4050
 12.6979 14.1099 15.6519 17.3360 19.1751 21.1837 23.3773 25.7729 28.3892 31.2465
 34.3669 37.7748 41.4965 45.5611 50.0000

    POTLOK:  cpu time   52.4560: real time   53.1937
    SETDIJ:  cpu time    0.0560: real time    0.0551
     EDDAV:  cpu time   23.1080: real time   23.3894
 BZINTS: Fermi energy:  5.959140; 60.000000 electrons
         Band energy:  26.625671;  BLOECHL correction: -0.030640
       DOS:  cpu time    0.0040: real time    0.0049
    --------------------------------------------
      LOOP:  cpu time   75.6240: real time   76.6431

 eigenvalue-minimisations  :   960
 total energy-change (2. order) : 0.3908129E+03  (-0.1771552E+04)
 number of electron      60.0000000 magnetization      12.0600000
 augmentation part       60.0000000 magnetization      12.0600000

 Free energy of the ion-electron system (eV)
  ---------------------------------------------------
  alpha Z        PSCENC =        18.22354835
  Ewald energy   TEWEN  =      7005.02028753
  -Hartree energ DENC   =     -9485.48750997
  -exchange      EXHF   =         0.00000000
  -V(xc)+E(xc)   XCENC  =      -182.45260084
  PAW double counting   =      1666.63692694    -1410.10827576
  entropy T*S    EENTRO =         0.00000000
  eigenvalues    EBANDS =        26.62567100
  atomic energy  EATOM  =      2752.35490196
  Solvation  Ediel_sol  =         0.00000000
  ---------------------------------------------------
  free energy    TOTEN  =       390.81294921 eV

  energy without entropy =      390.81294921  energy(sigma->0) =      390.81294921


--------------------------------------------------------------------------------------------------------




--------------------------------------- Iteration      1(   2)  ---------------------------------------


     EDDAV:  cpu time   28.7760: real time   29.1074
 BZINTS: Fermi energy: -0.589282; 60.000000 electrons
         Band energy:-356.485309;  BLOECHL correction: -0.031894
       DOS:  cpu time    0.0080: real time    0.0072
    --------------------------------------------
      LOOP:  cpu time   28.7840: real time   29.1146

 eigenvalue-minimisations  :  1232
 total energy-change (2. order) :-0.3831110E+03  (-0.3626428E+03)
 number of electron      60.0000000 magnetization      12.0600000
 augmentation part       60.0000000 magnetization      12.0600000

 Free energy of the ion-electron system (eV)
  ---------------------------------------------------
  alpha Z        PSCENC =        18.22354835
  Ewald energy   TEWEN  =      7005.02028753
  -Hartree energ DENC   =     -9485.48750997
  -exchange      EXHF   =         0.00000000
  -V(xc)+E(xc)   XCENC  =      -182.45260084
  PAW double counting   =      1666.63692694    -1410.10827576
  entropy T*S    EENTRO =         0.00000000
  eigenvalues    EBANDS =      -356.48530887
  atomic energy  EATOM  =      2752.35490196
  Solvation  Ediel_sol  =         0.00000000
  ---------------------------------------------------
  free energy    TOTEN  =         7.70196934 eV

  energy without entropy =        7.70196934  energy(sigma->0) =        7.70196934


--------------------------------------------------------------------------------------------------------




--------------------------------------- Iteration      1(   3)  ---------------------------------------


     EDDAV:  cpu time   28.8320: real time   29.1364
 BZINTS: Fermi energy: -1.460426; 60.000000 electrons
         Band energy:-402.459240;  BLOECHL correction: -0.026457
       DOS:  cpu time    0.0040: real time    0.0048
    --------------------------------------------
      LOOP:  cpu time   28.8360: real time   29.1411

 eigenvalue-minimisations  :  1232
 total energy-change (2. order) :-0.4597393E+02  (-0.4507321E+02)
 number of electron      60.0000000 magnetization      12.0600000
 augmentation part       60.0000000 magnetization      12.0600000

 Free energy of the ion-electron system (eV)
  ---------------------------------------------------
  alpha Z        PSCENC =        18.22354835
  Ewald energy   TEWEN  =      7005.02028753
  -Hartree energ DENC   =     -9485.48750997
  -exchange      EXHF   =         0.00000000
  -V(xc)+E(xc)   XCENC  =      -182.45260084
  PAW double counting   =      1666.63692694    -1410.10827576
  entropy T*S    EENTRO =         0.00000000
  eigenvalues    EBANDS =      -402.45924011
  atomic energy  EATOM  =      2752.35490196
  Solvation  Ediel_sol  =         0.00000000
  ---------------------------------------------------
  free energy    TOTEN  =       -38.27196189 eV

  energy without entropy =      -38.27196189  energy(sigma->0) =      -38.27196189


--------------------------------------------------------------------------------------------------------




--------------------------------------- Iteration      1(   4)  ---------------------------------------


     EDDAV:  cpu time   31.5000: real time   31.8085
 BZINTS: Fermi energy: -1.489442; 60.000000 electrons
         Band energy:-404.313981;  BLOECHL correction: -0.026058
       DOS:  cpu time    0.0040: real time    0.0050
    --------------------------------------------
      LOOP:  cpu time   31.5040: real time   31.8136

 eigenvalue-minimisations  :  1360
 total energy-change (2. order) :-0.1854741E+01  (-0.1847524E+01)
 number of electron      60.0000000 magnetization      12.0600000
 augmentation part       60.0000000 magnetization      12.0600000

 Free energy of the ion-electron system (eV)
  ---------------------------------------------------
  alpha Z        PSCENC =        18.22354835
  Ewald energy   TEWEN  =      7005.02028753
  -Hartree energ DENC   =     -9485.48750997
  -exchange      EXHF   =         0.00000000
  -V(xc)+E(xc)   XCENC  =      -182.45260084
  PAW double counting   =      1666.63692694    -1410.10827576
  entropy T*S    EENTRO =         0.00000000
  eigenvalues    EBANDS =      -404.31398063
  atomic energy  EATOM  =      2752.35490196
  Solvation  Ediel_sol  =         0.00000000
  ---------------------------------------------------
  free energy    TOTEN  =       -40.12670241 eV

  energy without entropy =      -40.12670241  energy(sigma->0) =      -40.12670241


--------------------------------------------------------------------------------------------------------




--------------------------------------- Iteration      1(   5)  ---------------------------------------


     EDDAV:  cpu time   31.8520: real time   32.4655
 BZINTS: Fermi energy: -1.489665; 60.000000 electrons
         Band energy:-404.357801;  BLOECHL correction: -0.026086
       DOS:  cpu time    0.0040: real time    0.0055
    CHARGE:  cpu time    2.0440: real time    2.0644
    MIXING:  cpu time    0.0480: real time    0.0457
    --------------------------------------------
      LOOP:  cpu time   33.9480: real time   34.5811

 eigenvalue-minimisations  :  1392
 total energy-change (2. order) :-0.4382030E-01  (-0.4382097E-01)
 number of electron      60.0000008 magnetization      11.6956035
 augmentation part       -2.6530786 magnetization       8.0854765

 Broyden mixing:
  rms(total) = 0.20031E+01    rms(broyden)= 0.20030E+01
  rms(prec ) = 0.21692E+01
  weight for this iteration     100.00

 Free energy of the ion-electron system (eV)
  ---------------------------------------------------
  alpha Z        PSCENC =        18.22354835
  Ewald energy   TEWEN  =      7005.02028753
  -Hartree energ DENC   =     -9485.48750997
  -exchange      EXHF   =         0.00000000
  -V(xc)+E(xc)   XCENC  =      -182.45260084
  PAW double counting   =      1666.63692694    -1410.10827576
  entropy T*S    EENTRO =         0.00000000
  eigenvalues    EBANDS =      -404.35780093
  atomic energy  EATOM  =      2752.35490196
  Solvation  Ediel_sol  =         0.00000000
  ---------------------------------------------------
  free energy    TOTEN  =       -40.17052271 eV

  energy without entropy =      -40.17052271  energy(sigma->0) =      -40.17052271


--------------------------------------------------------------------------------------------------------




--------------------------------------- Iteration      1(   6)  ---------------------------------------


    POTLOK:  cpu time   51.2680: real time   52.6620
    SETDIJ:  cpu time    0.0520: real time    0.0522
     EDDAV:  cpu time   27.5080: real time   28.1805
 BZINTS: Fermi energy: -3.592197; 60.000000 electrons
         Band energy:-528.018177;  BLOECHL correction: -0.035893
       DOS:  cpu time    0.0040: real time    0.0072
    CHARGE:  cpu time    1.9560: real time    2.0434
    MIXING:  cpu time    0.0480: real time    0.0481
    --------------------------------------------
      LOOP:  cpu time   80.8360: real time   82.9934

 eigenvalue-minimisations  :  1184
 total energy-change (2. order) :-0.3120564E+02  (-0.2606519E+02)
 number of electron      60.0000016 magnetization      11.4227318
 augmentation part        6.4935882 magnetization      10.0738076

 Broyden mixing:
  rms(total) = 0.58379E+01    rms(broyden)= 0.58379E+01
  rms(prec ) = 0.62136E+01
  weight for this iteration     100.00

 eigenvalues of (default mixing * dielectric matrix)
  average eigenvalue GAMMA=   0.2171
  0.2171

 Free energy of the ion-electron system (eV)
  ---------------------------------------------------
  alpha Z        PSCENC =        18.22354835
  Ewald energy   TEWEN  =      7005.02028753
  -Hartree energ DENC   =     -9402.32987771
  -exchange      EXHF   =         0.00000000
  -V(xc)+E(xc)   XCENC  =      -181.65037767
  PAW double counting   =      1555.90127704    -1290.87774186
  entropy T*S    EENTRO =         0.00000000
  eigenvalues    EBANDS =      -528.01817670
  atomic energy  EATOM  =      2752.35490196
  Solvation  Ediel_sol  =         0.00000000
  ---------------------------------------------------
  free energy    TOTEN  =       -71.37615905 eV

  energy without entropy =      -71.37615905  energy(sigma->0) =      -71.37615905


--------------------------------------------------------------------------------------------------------




--------------------------------------- Iteration      1(   7)  ---------------------------------------


    POTLOK:  cpu time   52.3000: real time   52.9051
    SETDIJ:  cpu time    0.0560: real time    0.0553
     EDDAV:  cpu time   26.1520: real time   26.8559
 BZINTS: Fermi energy: -2.827938; 60.000000 electrons
         Band energy:-426.632002;  BLOECHL correction: -0.044104
       DOS:  cpu time    0.0040: real time    0.0067
    CHARGE:  cpu time    2.0720: real time    2.0847
    MIXING:  cpu time    0.0440: real time    0.0435
    --------------------------------------------
      LOOP:  cpu time   80.6280: real time   81.9511

 eigenvalue-minimisations  :  1120
 total energy-change (2. order) : 0.3500563E+02  (-0.5022122E+01)
 number of electron      60.0000013 magnetization      11.1166713
 augmentation part        1.9052495 magnetization      10.6005120

 Broyden mixing:
  rms(total) = 0.16351E+01    rms(broyden)= 0.16350E+01
  rms(prec ) = 0.17498E+01
  weight for this iteration     100.00

 eigenvalues of (default mixing * dielectric matrix)
  average eigenvalue GAMMA=   0.3696
  0.3696  0.3696

 Free energy of the ion-electron system (eV)
  ---------------------------------------------------
  alpha Z        PSCENC =        18.22354835
  Ewald energy   TEWEN  =      7005.02028753
  -Hartree energ DENC   =     -9458.53969701
  -exchange      EXHF   =         0.00000000
  -V(xc)+E(xc)   XCENC  =      -183.17373102
  PAW double counting   =      1659.06033264    -1402.68416579
  entropy T*S    EENTRO =         0.00000000
  eigenvalues    EBANDS =      -426.63200198
  atomic energy  EATOM  =      2752.35490196
  Solvation  Ediel_sol  =         0.00000000
  ---------------------------------------------------
  free energy    TOTEN  =       -36.37052531 eV

  energy without entropy =      -36.37052531  energy(sigma->0) =      -36.37052531


--------------------------------------------------------------------------------------------------------




--------------------------------------- Iteration      1(   8)  ---------------------------------------


    POTLOK:  cpu time   52.1760: real time   52.5997
    SETDIJ:  cpu time    0.0520: real time    0.0519
     EDDAV:  cpu time   32.1520: real time   32.4405
 BZINTS: Fermi energy: -2.442614; 60.000000 electrons
         Band energy:-416.931085;  BLOECHL correction: -0.010811
       DOS:  cpu time    0.0040: real time    0.0066
    CHARGE:  cpu time    2.0080: real time    2.0872
    MIXING:  cpu time    0.0480: real time    0.0456
    --------------------------------------------
      LOOP:  cpu time   86.4400: real time   87.2315

 eigenvalue-minimisations  :  1392
 total energy-change (2. order) : 0.6130529E+00  (-0.6547532E+00)
 number of electron      60.0000011 magnetization      10.6795172
 augmentation part        0.1917735 magnetization       9.0476254

 Broyden mixing:
  rms(total) = 0.42234E+00    rms(broyden)= 0.42205E+00
  rms(prec ) = 0.43756E+00
  weight for this iteration     100.00

 eigenvalues of (default mixing * dielectric matrix)
  average eigenvalue GAMMA=   0.4975
  0.6688  0.4119  0.4119

 Free energy of the ion-electron system (eV)
  ---------------------------------------------------
  alpha Z        PSCENC =        18.22354835
  Ewald energy   TEWEN  =      7005.02028753
  -Hartree energ DENC   =     -9467.07593888
  -exchange      EXHF   =         0.00000000
  -V(xc)+E(xc)   XCENC  =      -183.24413428
  PAW double counting   =      1680.49047317    -1424.59552525
  entropy T*S    EENTRO =         0.00000000
  eigenvalues    EBANDS =      -416.93108501
  atomic energy  EATOM  =      2752.35490196
  Solvation  Ediel_sol  =         0.00000000
  ---------------------------------------------------
  free energy    TOTEN  =       -35.75747240 eV

  energy without entropy =      -35.75747240  energy(sigma->0) =      -35.75747240


--------------------------------------------------------------------------------------------------------




--------------------------------------- Iteration      1(   9)  ---------------------------------------


    POTLOK:  cpu time   51.5040: real time   51.7606
    SETDIJ:  cpu time    0.0520: real time    0.0516
     EDDAV:  cpu time   28.0320: real time   28.3091
 BZINTS: Fermi energy: -2.492764; 60.000000 electrons
         Band energy:-417.932122;  BLOECHL correction: -0.022924
       DOS:  cpu time    0.0040: real time    0.0068
    CHARGE:  cpu time    1.9200: real time    2.0616
    MIXING:  cpu time    0.0440: real time    0.0474
    --------------------------------------------
      LOOP:  cpu time   81.5560: real time   82.2371

 eigenvalue-minimisations  :  1200
 total energy-change (2. order) :-0.4233131E+00  (-0.5453811E-01)
 number of electron      60.0000011 magnetization       9.4971930
 augmentation part        0.6073811 magnetization       8.1791033

 Broyden mixing:
  rms(total) = 0.70465E+00    rms(broyden)= 0.70462E+00
  rms(prec ) = 0.74182E+00
  weight for this iteration     100.00

 eigenvalues of (default mixing * dielectric matrix)
  average eigenvalue GAMMA=   0.7620
  1.4608  0.8256  0.3808  0.3808

 Free energy of the ion-electron system (eV)
  ---------------------------------------------------
  alpha Z        PSCENC =        18.22354835
  Ewald energy   TEWEN  =      7005.02028753
  -Hartree energ DENC   =     -9466.07592174
  -exchange      EXHF   =         0.00000000
  -V(xc)+E(xc)   XCENC  =      -182.80084370
  PAW double counting   =      1689.52181898    -1434.49245498
  entropy T*S    EENTRO =         0.00000000
  eigenvalues    EBANDS =      -417.93212188
  atomic energy  EATOM  =      2752.35490196
  Solvation  Ediel_sol  =         0.00000000
  ---------------------------------------------------
  free energy    TOTEN  =       -36.18078548 eV

  energy without entropy =      -36.18078548  energy(sigma->0) =      -36.18078548


--------------------------------------------------------------------------------------------------------




--------------------------------------- Iteration      1(  10)  ---------------------------------------


    POTLOK:  cpu time   50.9880: real time   51.3217
    SETDIJ:  cpu time    0.0560: real time    0.0554
     EDDAV:  cpu time   29.3480: real time   29.6945
 BZINTS: Fermi energy: -2.553719; 60.000000 electrons
         Band energy:-415.861521;  BLOECHL correction: -0.030042
       DOS:  cpu time    0.0040: real time    0.0068
    CHARGE:  cpu time    2.0520: real time    2.0846
    MIXING:  cpu time    0.0480: real time    0.0449
    --------------------------------------------
      LOOP:  cpu time   82.4960: real time   83.2080

 eigenvalue-minimisations  :  1264
 total energy-change (2. order) :-0.5507811E+00  (-0.8300872E-01)
 number of electron      60.0000012 magnetization       8.7720259
 augmentation part        1.2095074 magnetization       8.0817010

 Broyden mixing:
  rms(total) = 0.11728E+01    rms(broyden)= 0.11727E+01
  rms(prec ) = 0.12394E+01
  weight for this iteration     100.00

 eigenvalues of (default mixing * dielectric matrix)
  average eigenvalue GAMMA=   0.8906
  2.1906  0.9173  0.4009  0.4009  0.5433

 Free energy of the ion-electron system (eV)
  ---------------------------------------------------
  alpha Z        PSCENC =        18.22354835
  Ewald energy   TEWEN  =      7005.02028753
  -Hartree energ DENC   =     -9468.17261209
  -exchange      EXHF   =         0.00000000
  -V(xc)+E(xc)   XCENC  =      -182.34432001
  PAW double counting   =      1712.05830448    -1458.01015591
  entropy T*S    EENTRO =         0.00000000
  eigenvalues    EBANDS =      -415.86152091
  atomic energy  EATOM  =      2752.35490196
  Solvation  Ediel_sol  =         0.00000000
  ---------------------------------------------------
  free energy    TOTEN  =       -36.73156659 eV

  energy without entropy =      -36.73156659  energy(sigma->0) =      -36.73156659


--------------------------------------------------------------------------------------------------------




--------------------------------------- Iteration      1(  11)  ---------------------------------------


    POTLOK:  cpu time   51.1960: real time   51.3387
    SETDIJ:  cpu time    0.0880: real time    0.0882
     EDDAV:  cpu time   39.1640: real time   39.4502
 BZINTS: Fermi energy: -2.604606; 60.000000 electrons
         Band energy:***********;  BLOECHL correction: -0.038799
       DOS:  cpu time    0.0040: real time    0.0072
    CHARGE:  cpu time    2.0400: real time    2.0388
    MIXING:  cpu time    0.0440: real time    0.0433
    --------------------------------------------
      LOOP:  cpu time   92.5360: real time   92.9664

 eigenvalue-minimisations  :  1728
 total energy-change (2. order) :-0.8215727E+03  (-0.8189325E+03)
 number of electron      60.0000010 magnetization       8.7721569
 augmentation part        0.1193999 magnetization      10.0349033

 Broyden mixing:
  rms(total) = 0.33878E+01    rms(broyden)= 0.32637E+01
  rms(prec ) = 0.33165E+01
  weight for this iteration     100.00

 eigenvalues of (default mixing * dielectric matrix)
  average eigenvalue GAMMA=   0.7422
  2.1908  0.9169  0.4009  0.4009  0.5433  0.0006

 Free energy of the ion-electron system (eV)
  ---------------------------------------------------
  alpha Z        PSCENC =        18.22354835
  Ewald energy   TEWEN  =      7005.02028753
  -Hartree energ DENC   =     -9472.57009020
  -exchange      EXHF   =         0.00000000
  -V(xc)+E(xc)   XCENC  =      -182.28156498
  PAW double counting   =      1722.64812359    -1468.82335956
  entropy T*S    EENTRO =         0.00000000
  eigenvalues    EBANDS =     -1232.87609629
  atomic energy  EATOM  =      2752.35490196
  Solvation  Ediel_sol  =         0.00000000
  ---------------------------------------------------
  free energy    TOTEN  =      -858.30424960 eV

  energy without entropy =     -858.30424960  energy(sigma->0) =     -858.30424960


--------------------------------------------------------------------------------------------------------




--------------------------------------- Iteration      1(  12)  ---------------------------------------


    POTLOK:  cpu time   50.9840: real time   51.1506
    SETDIJ:  cpu time    0.0520: real time    0.0523
     EDDAV:  cpu time   24.6000: real time   24.8429
 BZINTS: Fermi energy: -2.577254; 60.000000 electrons
         Band energy:-500.147692;  BLOECHL correction: -0.035679
       DOS:  cpu time    0.0040: real time    0.0070
    CHARGE:  cpu time    2.0080: real time    2.0099
    MIXING:  cpu time    0.0440: real time    0.0438
    --------------------------------------------
      LOOP:  cpu time   77.6920: real time   78.1066

 eigenvalue-minimisations  :  1040
 total energy-change (2. order) : 0.7345849E+03  (-0.5045243E+03)
 number of electron      60.0000010 magnetization       8.7723951
 augmentation part        0.1121677 magnetization      10.0753841

 Broyden mixing:
  rms(total) = 0.25214E+01    rms(broyden)= 0.23864E+01
  rms(prec ) = 0.24353E+01
  weight for this iteration     100.00

 eigenvalues of (default mixing * dielectric matrix)
  average eigenvalue GAMMA=   0.6364
  2.1913  0.9161  0.4009  0.4009  0.5434  0.0019  0.0002

 Free energy of the ion-electron system (eV)
  ---------------------------------------------------
  alpha Z        PSCENC =        18.22354835
  Ewald energy   TEWEN  =      7005.02028753
  -Hartree energ DENC   =     -9472.69493381
  -exchange      EXHF   =         0.00000000
  -V(xc)+E(xc)   XCENC  =      -180.32349924
  PAW double counting   =      1722.65468066    -1468.80667419
  entropy T*S    EENTRO =         0.00000000
  eigenvalues    EBANDS =      -500.14769182
  atomic energy  EATOM  =      2752.35490196
  Solvation  Ediel_sol  =         0.00000000
  ---------------------------------------------------
  free energy    TOTEN  =      -123.71938056 eV

  energy without entropy =     -123.71938056  energy(sigma->0) =     -123.71938056


--------------------------------------------------------------------------------------------------------




--------------------------------------- Iteration      1(  13)  ---------------------------------------


    POTLOK:  cpu time   51.1400: real time   51.2898
    SETDIJ:  cpu time    0.0520: real time    0.0520
     EDDAV:  cpu time   26.9840: real time   27.2340
 BZINTS: Fermi energy: -2.581832; 60.000000 electrons
         Band energy:-461.893939;  BLOECHL correction: -0.035781
       DOS:  cpu time    0.0040: real time    0.0069
    CHARGE:  cpu time    2.0160: real time    2.0186
    MIXING:  cpu time    0.0520: real time    0.0541
    --------------------------------------------
      LOOP:  cpu time   80.2480: real time   80.6554

 eigenvalue-minimisations  :  1152
 total energy-change (2. order) : 0.3723821E+02  (-0.1830191E+03)
 number of electron      60.0000010 magnetization       8.7686941
 augmentation part        0.1086426 magnetization      10.0779777

 Broyden mixing:
  rms(total) = 0.17405E+01    rms(broyden)= 0.16954E+01
  rms(prec ) = 0.18561E+01
  weight for this iteration     100.00

 eigenvalues of (default mixing * dielectric matrix)
  average eigenvalue GAMMA=   0.5574
  2.1944  0.9134  0.4009  0.4009  0.5435  0.0056  0.0003  0.0003

 Free energy of the ion-electron system (eV)
  ---------------------------------------------------
  alpha Z        PSCENC =        18.22354835
  Ewald energy   TEWEN  =      7005.02028753
  -Hartree energ DENC   =     -9472.62162772
  -exchange      EXHF   =         0.00000000
  -V(xc)+E(xc)   XCENC  =      -181.40981110
  PAW double counting   =      1722.67072011    -1468.82524623
  entropy T*S    EENTRO =         0.00000000
  eigenvalues    EBANDS =      -461.89393938
  atomic energy  EATOM  =      2752.35490196
  Solvation  Ediel_sol  =         0.00000000
  ---------------------------------------------------
  free energy    TOTEN  =       -86.48116647 eV

  energy without entropy =      -86.48116647  energy(sigma->0) =      -86.48116647


--------------------------------------------------------------------------------------------------------




--------------------------------------- Iteration      1(  14)  ---------------------------------------


    POTLOK:  cpu time   51.1480: real time   51.4320
    SETDIJ:  cpu time    0.0480: real time    0.0517
     EDDAV:  cpu time   27.5720: real time   27.8291
 BZINTS: Fermi energy: -2.415522; 60.000000 electrons
         Band energy:-411.190503;  BLOECHL correction: -0.025776
       DOS:  cpu time    0.0040: real time    0.0070
    CHARGE:  cpu time    2.0280: real time    2.0267
    MIXING:  cpu time    0.0440: real time    0.0461
    --------------------------------------------
      LOOP:  cpu time   80.8440: real time   81.3925

 eigenvalue-minimisations  :  1184
 total energy-change (2. order) : 0.5050696E+02  (-0.1011772E+03)
 number of electron      60.0000011 magnetization       8.1628576
 augmentation part        0.8559160 magnetization       7.4010836

 Broyden mixing:
  rms(total) = 0.87363E+00    rms(broyden)= 0.85733E+00
  rms(prec ) = 0.90228E+00
  weight for this iteration     100.00

 eigenvalues of (default mixing * dielectric matrix)
  average eigenvalue GAMMA=   0.6583
  2.8968  0.7928  0.7928  0.4006  0.4006  0.6349  0.0057  0.0006  0.0003

 Free energy of the ion-electron system (eV)
  ---------------------------------------------------
  alpha Z        PSCENC =        18.22354835
  Ewald energy   TEWEN  =      7005.02028753
  -Hartree energ DENC   =     -9472.41833414
  -exchange      EXHF   =         0.00000000
  -V(xc)+E(xc)   XCENC  =      -181.81295370
  PAW double counting   =      1722.55750027    -1468.70865857
  entropy T*S    EENTRO =         0.00000000
  eigenvalues    EBANDS =      -411.19050310
  atomic energy  EATOM  =      2752.35490196
  Solvation  Ediel_sol  =         0.00000000
  ---------------------------------------------------
  free energy    TOTEN  =       -35.97421139 eV

  energy without entropy =      -35.97421139  energy(sigma->0) =      -35.97421139


--------------------------------------------------------------------------------------------------------




--------------------------------------- Iteration      1(  15)  ---------------------------------------


    POTLOK:  cpu time   50.9120: real time   51.3556
    SETDIJ:  cpu time    0.0520: real time    0.0509
     EDDAV:  cpu time   25.0160: real time   25.3191
 BZINTS: Fermi energy: -2.347983; 60.000000 electrons
         Band energy:-407.722327;  BLOECHL correction: -0.026780
       DOS:  cpu time    0.0040: real time    0.0070
    CHARGE:  cpu time    1.9760: real time    2.0132
    MIXING:  cpu time    0.0480: real time    0.0502
    --------------------------------------------
      LOOP:  cpu time   78.0080: real time   78.7960

 eigenvalue-minimisations  :  1072
 total energy-change (2. order) :-0.4238080E+00  (-0.1864596E-01)
 number of electron      60.0000011 magnetization       7.5705567
 augmentation part        0.5635701 magnetization       6.8326091

 Broyden mixing:
  rms(total) = 0.58872E+00    rms(broyden)= 0.58776E+00
  rms(prec ) = 0.61572E+00
  weight for this iteration     100.00

 eigenvalues of (default mixing * dielectric matrix)
  average eigenvalue GAMMA=   0.7539
  2.9840  1.1764  1.1764  0.4001  0.4001  0.7848  0.6104  0.0058  0.0006  0.0003

 Free energy of the ion-electron system (eV)
  ---------------------------------------------------
  alpha Z        PSCENC =        18.22354835
  Ewald energy   TEWEN  =      7005.02028753
  -Hartree energ DENC   =     -9475.76834805
  -exchange      EXHF   =         0.00000000
  -V(xc)+E(xc)   XCENC  =      -182.34698040
  PAW double counting   =      1728.36616944    -1474.52527127
  entropy T*S    EENTRO =         0.00000000
  eigenvalues    EBANDS =      -407.72232696
  atomic energy  EATOM  =      2752.35490196
  Solvation  Ediel_sol  =         0.00000000
  ---------------------------------------------------
  free energy    TOTEN  =       -36.39801940 eV

  energy without entropy =      -36.39801940  energy(sigma->0) =      -36.39801940


--------------------------------------------------------------------------------------------------------




--------------------------------------- Iteration      1(  16)  ---------------------------------------


    POTLOK:  cpu time   50.2800: real time   51.3161
    SETDIJ:  cpu time    0.0520: real time    0.0522
     EDDAV:  cpu time   31.3840: real time   31.8268
 BZINTS: Fermi energy: -2.288457; 60.000000 electrons
         Band energy:-405.558754;  BLOECHL correction: -0.025130
       DOS:  cpu time    0.0080: real time    0.0074
    CHARGE:  cpu time    2.0640: real time    2.0724
    MIXING:  cpu time    0.0480: real time    0.0485
    --------------------------------------------
      LOOP:  cpu time   83.8360: real time   85.3233

 eigenvalue-minimisations  :  1376
 total energy-change (2. order) :-0.8075984E-01  (-0.9441871E-02)
 number of electron      60.0000011 magnetization       5.9499982
 augmentation part        0.3853450 magnetization       5.2587829

 Broyden mixing:
  rms(total) = 0.44217E+00    rms(broyden)= 0.44211E+00
  rms(prec ) = 0.46039E+00
  weight for this iteration     100.00

 eigenvalues of (default mixing * dielectric matrix)
  average eigenvalue GAMMA=   0.8834
  3.7630  1.5079  1.5079  0.7590  0.7590  0.4007  0.4007  0.6123  0.0058  0.0006
  0.0003

 Free energy of the ion-electron system (eV)
  ---------------------------------------------------
  alpha Z        PSCENC =        18.22354835
  Ewald energy   TEWEN  =      7005.02028753
  -Hartree energ DENC   =     -9477.91151443
  -exchange      EXHF   =         0.00000000
  -V(xc)+E(xc)   XCENC  =      -182.59140465
  PAW double counting   =      1728.64999522    -1474.66583964
  entropy T*S    EENTRO =         0.00000000
  eigenvalues    EBANDS =      -405.55875358
  atomic energy  EATOM  =      2752.35490196
  Solvation  Ediel_sol  =         0.00000000
  ---------------------------------------------------
  free energy    TOTEN  =       -36.47877925 eV

  energy without entropy =      -36.47877925  energy(sigma->0) =      -36.47877925


--------------------------------------------------------------------------------------------------------




--------------------------------------- Iteration      1(  17)  ---------------------------------------


    POTLOK:  cpu time   50.7360: real time   51.1377
    SETDIJ:  cpu time    0.0560: real time    0.0542
     EDDAV:  cpu time   29.4480: real time   29.7457
 BZINTS: Fermi energy: -2.205769; 60.000000 electrons
         Band energy:-401.773896;  BLOECHL correction: -0.019002
       DOS:  cpu time    0.0040: real time    0.0069
    CHARGE:  cpu time    1.9960: real time    2.0363
    MIXING:  cpu time    0.0480: real time    0.0482
    --------------------------------------------
      LOOP:  cpu time   82.2880: real time   83.0290

 eigenvalue-minimisations  :  1280
 total energy-change (2. order) :-0.2108068E+00  (-0.7440616E-02)
 number of electron      60.0000011 magnetization       4.8920511
 augmentation part        0.3582702 magnetization       4.4083692

 Broyden mixing:
  rms(total) = 0.35259E+00    rms(broyden)= 0.35258E+00
  rms(prec ) = 0.37213E+00
  weight for this iteration     100.00

 eigenvalues of (default mixing * dielectric matrix)
  average eigenvalue GAMMA=   1.1380
  6.1136  2.1654  1.2237  1.2237  0.4004  0.4004  0.7740  0.7740  0.5735  0.0058
  0.0006  0.0003

 Free energy of the ion-electron system (eV)
  ---------------------------------------------------
  alpha Z        PSCENC =        18.22354835
  Ewald energy   TEWEN  =      7005.02028753
  -Hartree energ DENC   =     -9481.84318953
  -exchange      EXHF   =         0.00000000
  -V(xc)+E(xc)   XCENC  =      -183.03180822
  PAW double counting   =      1727.64301068    -1473.28244109
  entropy T*S    EENTRO =         0.00000000
  eigenvalues    EBANDS =      -401.77389578
  atomic energy  EATOM  =      2752.35490196
  Solvation  Ediel_sol  =         0.00000000
  ---------------------------------------------------
  free energy    TOTEN  =       -36.68958609 eV

  energy without entropy =      -36.68958609  energy(sigma->0) =      -36.68958609


--------------------------------------------------------------------------------------------------------




--------------------------------------- Iteration      1(  18)  ---------------------------------------


    POTLOK:  cpu time   50.8320: real time   51.2237
    SETDIJ:  cpu time    0.0520: real time    0.0522
     EDDAV:  cpu time   29.5480: real time   29.7814
 BZINTS: Fermi energy: -2.122236; 60.000000 electrons
         Band energy:-398.162912;  BLOECHL correction: -0.015449
       DOS:  cpu time    0.0080: real time    0.0070
    CHARGE:  cpu time    1.9880: real time    2.0197
    MIXING:  cpu time    0.0520: real time    0.0498
    --------------------------------------------
      LOOP:  cpu time   82.4800: real time   83.1338

 eigenvalue-minimisations  :  1280
 total energy-change (2. order) :-0.6592405E-01  (-0.1938809E-01)
 number of electron      60.0000011 magnetization       3.8169572
 augmentation part        0.1601699 magnetization       3.3931148

 Broyden mixing:
  rms(total) = 0.18987E+00    rms(broyden)= 0.18986E+00
  rms(prec ) = 0.19771E+00
  weight for this iteration     100.00

 eigenvalues of (default mixing * dielectric matrix)
  average eigenvalue GAMMA=   1.4555
  9.9485  2.3730  1.3698  1.1700  1.1700  0.4004  0.4004  0.7542  0.7542  0.5744
  0.0058  0.0006  0.0003

 Free energy of the ion-electron system (eV)
  ---------------------------------------------------
  alpha Z        PSCENC =        18.22354835
  Ewald energy   TEWEN  =      7005.02028753
  -Hartree energ DENC   =     -9485.48841564
  -exchange      EXHF   =         0.00000000
  -V(xc)+E(xc)   XCENC  =      -183.25246698
  PAW double counting   =      1725.54010506    -1470.99055877
  entropy T*S    EENTRO =         0.00000000
  eigenvalues    EBANDS =      -398.16291166
  atomic energy  EATOM  =      2752.35490196
  Solvation  Ediel_sol  =         0.00000000
  ---------------------------------------------------
  free energy    TOTEN  =       -36.75551014 eV

  energy without entropy =      -36.75551014  energy(sigma->0) =      -36.75551014


--------------------------------------------------------------------------------------------------------




--------------------------------------- Iteration      1(  19)  ---------------------------------------


    POTLOK:  cpu time   51.1560: real time   51.3751
    SETDIJ:  cpu time    0.0440: real time    0.0578
     EDDAV:  cpu time   36.2640: real time   36.5943
 BZINTS: Fermi energy: -2.204010; 60.000000 electrons
         Band energy:-452.123751;  BLOECHL correction: -0.029858
       DOS:  cpu time    0.0040: real time    0.0067
    CHARGE:  cpu time    1.9880: real time    2.0484
    MIXING:  cpu time    0.0520: real time    0.0503
    --------------------------------------------
      LOOP:  cpu time   89.5080: real time   90.1325

 eigenvalue-minimisations  :  1600
 total energy-change (2. order) :-0.5744614E+02  (-0.5610349E+02)
 number of electron      60.0000010 magnetization       3.8170381
 augmentation part       -0.8225449 magnetization       5.2345265

 Broyden mixing:
  rms(total) = 0.27699E+01    rms(broyden)= 0.27316E+01
  rms(prec ) = 0.28372E+01
  weight for this iteration     100.00

 eigenvalues of (default mixing * dielectric matrix)
  average eigenvalue GAMMA=   1.3515
  9.9484  2.3729  1.3697  1.1701  1.1701  0.4004  0.4004  0.7542  0.7542  0.5744
  0.0058  0.0006  0.0000  0.0003

 Free energy of the ion-electron system (eV)
  ---------------------------------------------------
  alpha Z        PSCENC =        18.22354835
  Ewald energy   TEWEN  =      7005.02028753
  -Hartree energ DENC   =     -9488.88468153
  -exchange      EXHF   =         0.00000000
  -V(xc)+E(xc)   XCENC  =      -183.41619260
  PAW double counting   =      1727.21613162    -1472.59188990
  entropy T*S    EENTRO =         0.00000000
  eigenvalues    EBANDS =      -452.12375110
  atomic energy  EATOM  =      2752.35490196
  Solvation  Ediel_sol  =         0.00000000
  ---------------------------------------------------
  free energy    TOTEN  =       -94.20164567 eV

  energy without entropy =      -94.20164567  energy(sigma->0) =      -94.20164567


--------------------------------------------------------------------------------------------------------




--------------------------------------- Iteration      1(  20)  ---------------------------------------


    POTLOK:  cpu time   51.1000: real time   51.6971
    SETDIJ:  cpu time    0.0520: real time    0.0528
     EDDAV:  cpu time   25.6680: real time   25.9585
 BZINTS: Fermi energy: -2.011070; 60.000000 electrons
         Band energy:-394.546983;  BLOECHL correction: -0.021092
       DOS:  cpu time    0.0040: real time    0.0074
    CHARGE:  cpu time    1.9560: real time    2.0391
    MIXING:  cpu time    0.0680: real time    0.0674
    --------------------------------------------
      LOOP:  cpu time   78.8480: real time   79.8224

 eigenvalue-minimisations  :  1088
 total energy-change (2. order) : 0.5836944E+02  (-0.2145674E+03)
 number of electron      60.0000010 magnetization       3.5623799
 augmentation part       -0.0249962 magnetization       3.1333772

 Broyden mixing:
  rms(total) = 0.37955E+00    rms(broyden)= 0.94801E-01
  rms(prec ) = 0.96552E-01
  weight for this iteration     100.00
  WARNING: grid for Broyden might be to small

 eigenvalues of (default mixing * dielectric matrix)
  average eigenvalue GAMMA=   1.4302
 11.7211  2.4961  1.5108  1.1888  1.1888  0.4004  0.4004  0.7057  0.7057  0.5642
  0.5642  0.0058  0.0006  0.0001  0.0003

 Free energy of the ion-electron system (eV)
  ---------------------------------------------------
  alpha Z        PSCENC =        18.22354835
  Ewald energy   TEWEN  =      7005.02028753
  -Hartree energ DENC   =     -9488.91755205
  -exchange      EXHF   =         0.00000000
  -V(xc)+E(xc)   XCENC  =      -182.62209792
  PAW double counting   =      1727.20884821    -1472.55315344
  entropy T*S    EENTRO =         0.00000000
  eigenvalues    EBANDS =      -394.54698335
  atomic energy  EATOM  =      2752.35490196
  Solvation  Ediel_sol  =         0.00000000
  ---------------------------------------------------
  free energy    TOTEN  =       -35.83220070 eV

  energy without entropy =      -35.83220070  energy(sigma->0) =      -35.83220070


--------------------------------------------------------------------------------------------------------




--------------------------------------- Iteration      1(  21)  ---------------------------------------


    POTLOK:  cpu time   51.0440: real time   51.2106
    SETDIJ:  cpu time    0.0520: real time    0.0531
     EDDAV:  cpu time   24.0360: real time   24.1955
 BZINTS: Fermi energy: -2.009837; 60.000000 electrons
         Band energy:-393.560432;  BLOECHL correction: -0.024545
       DOS:  cpu time    0.0040: real time    0.0066
    CHARGE:  cpu time    1.9960: real time    2.0002
    MIXING:  cpu time    0.0560: real time    0.0562
    --------------------------------------------
      LOOP:  cpu time   77.1880: real time   77.5221

 eigenvalue-minimisations  :  1008
 total energy-change (2. order) :-0.7758433E+00  (-0.1734070E-01)
 number of electron      60.0000011 magnetization       3.5544371
 augmentation part       -0.0346545 magnetization       3.1423423

 Broyden mixing:
  rms(total) = 0.11488E+00    rms(broyden)= 0.88272E-01
  rms(prec ) = 0.90577E-01
  weight for this iteration     100.00
  WARNING: grid for Broyden might be to small

 eigenvalues of (default mixing * dielectric matrix)
  average eigenvalue GAMMA=   1.4803
 12.5832  2.5689  1.7583  1.2339  1.2339  0.4004  0.4004  0.5791  0.7299  0.7299
  0.7296  0.7296  0.0058  0.0006  0.0003  0.0001

 Free energy of the ion-electron system (eV)
  ---------------------------------------------------
  alpha Z        PSCENC =        18.22354835
  Ewald energy   TEWEN  =      7005.02028753
  -Hartree energ DENC   =     -9489.88785735
  -exchange      EXHF   =         0.00000000
  -V(xc)+E(xc)   XCENC  =      -183.41769979
  PAW double counting   =      1728.31401559    -1473.65480844
  entropy T*S    EENTRO =         0.00000000
  eigenvalues    EBANDS =      -393.56043186
  atomic energy  EATOM  =      2752.35490196
  Solvation  Ediel_sol  =         0.00000000
  ---------------------------------------------------
  free energy    TOTEN  =       -36.60804400 eV

  energy without entropy =      -36.60804400  energy(sigma->0) =      -36.60804400


--------------------------------------------------------------------------------------------------------




--------------------------------------- Iteration      1(  22)  ---------------------------------------


    POTLOK:  cpu time   51.0200: real time   51.2138
    SETDIJ:  cpu time    0.0560: real time    0.0554
     EDDAV:  cpu time   29.4840: real time   29.7690
 BZINTS: Fermi energy: -1.995394; 60.000000 electrons
         Band energy:-393.053424;  BLOECHL correction: -0.022636
       DOS:  cpu time    0.0080: real time    0.0068
    CHARGE:  cpu time    2.0360: real time    2.0377
    MIXING:  cpu time    0.0560: real time    0.0556
    --------------------------------------------
      LOOP:  cpu time   82.6600: real time   83.1383

 eigenvalue-minimisations  :  1280
 total energy-change (2. order) :-0.1144935E+00  (-0.2792147E-02)
 number of electron      60.0000011 magnetization       3.5234077
 augmentation part       -0.0676988 magnetization       3.0858157

 Broyden mixing:
  rms(total) = 0.99643E-01    rms(broyden)= 0.98550E-01
  rms(prec ) = 0.10260E+00
  weight for this iteration     100.00

 eigenvalues of (default mixing * dielectric matrix)
  average eigenvalue GAMMA=   1.4888
 12.9014  2.5743  2.1338  1.2556  1.2556  0.4004  0.4004  0.8614  0.8614  0.7425
  0.7425  0.5869  0.5869  0.0058  0.0006  0.0003  0.0001

 Free energy of the ion-electron system (eV)
  ---------------------------------------------------
  alpha Z        PSCENC =        18.22354835
  Ewald energy   TEWEN  =      7005.02028753
  -Hartree energ DENC   =     -9490.37201148
  -exchange      EXHF   =         0.00000000
  -V(xc)+E(xc)   XCENC  =      -183.52894852
  PAW double counting   =      1729.36305391    -1474.72994481
  entropy T*S    EENTRO =         0.00000000
  eigenvalues    EBANDS =      -393.05342442
  atomic energy  EATOM  =      2752.35490196
  Solvation  Ediel_sol  =         0.00000000
  ---------------------------------------------------
  free energy    TOTEN  =       -36.72253747 eV

  energy without entropy =      -36.72253747  energy(sigma->0) =      -36.72253747


--------------------------------------------------------------------------------------------------------




--------------------------------------- Iteration      1(  23)  ---------------------------------------


    POTLOK:  cpu time   51.0560: real time   51.4079
    SETDIJ:  cpu time    0.0280: real time    0.0583
     EDDAV:  cpu time   24.7360: real time   25.0452
 BZINTS: Fermi energy: -1.994403; 60.000000 electrons
         Band energy:-392.742758;  BLOECHL correction: -0.024606
       DOS:  cpu time    0.0040: real time    0.0065
    CHARGE:  cpu time    1.9720: real time    2.0285
    MIXING:  cpu time    0.0560: real time    0.0570
    --------------------------------------------
      LOOP:  cpu time   77.8520: real time   78.6034

 eigenvalue-minimisations  :  1056
 total energy-change (2. order) :-0.1388098E-01  (-0.1101797E-02)
 number of electron      60.0000011 magnetization       3.5208064
 augmentation part       -0.0601438 magnetization       3.0958798

 Broyden mixing:
  rms(total) = 0.96872E-01    rms(broyden)= 0.96827E-01
  rms(prec ) = 0.10050E+00
  weight for this iteration     100.00

 eigenvalues of (default mixing * dielectric matrix)
  average eigenvalue GAMMA=   1.4893
 12.9988  2.5281  2.5281  1.3029  1.3029  0.9738  0.9738  0.4004  0.4004  0.7079
  0.7079  0.7258  0.5847  0.6650  0.0058  0.0006  0.0003  0.0001

 Free energy of the ion-electron system (eV)
  ---------------------------------------------------
  alpha Z        PSCENC =        18.22354835
  Ewald energy   TEWEN  =      7005.02028753
  -Hartree energ DENC   =     -9490.64711622
  -exchange      EXHF   =         0.00000000
  -V(xc)+E(xc)   XCENC  =      -183.57202962
  PAW double counting   =      1729.55180693    -1474.92505981
  entropy T*S    EENTRO =         0.00000000
  eigenvalues    EBANDS =      -392.74275758
  atomic energy  EATOM  =      2752.35490196
  Solvation  Ediel_sol  =         0.00000000
  ---------------------------------------------------
  free energy    TOTEN  =       -36.73641845 eV

  energy without entropy =      -36.73641845  energy(sigma->0) =      -36.73641845


--------------------------------------------------------------------------------------------------------




--------------------------------------- Iteration      1(  24)  ---------------------------------------


    POTLOK:  cpu time   51.0200: real time   51.2281
    SETDIJ:  cpu time    0.0520: real time    0.0539
     EDDAV:  cpu time   24.8200: real time   25.0594
 BZINTS: Fermi energy: -1.996791; 60.000000 electrons
         Band energy:-392.628834;  BLOECHL correction: -0.025777
       DOS:  cpu time    0.0040: real time    0.0068
    CHARGE:  cpu time    1.9880: real time    2.0011
    MIXING:  cpu time    0.0920: real time    0.0927
    --------------------------------------------
      LOOP:  cpu time   77.9760: real time   78.4418

 eigenvalue-minimisations  :  1056
 total energy-change (2. order) :-0.1135143E-02  (-0.2055391E-03)
 number of electron      60.0000011 magnetization       3.5301904
[...]
     34      -0.4439      0.00000
     35      -0.2541      0.00000
     36       0.0223      0.00000
     37       0.3520      0.00000
     38       1.3056      0.00000
     39       1.3572      0.00000
     40       2.0687      0.00000
     41       2.2677      0.00000
     42       2.4024      0.00000
     43       2.6086      0.00000
     44       2.7571      0.00000
     45       2.9213      0.00000
     46       3.3882      0.00000
     47       3.5990      0.00000
     48       3.8293      0.00000

 k-point     5 :      -0.4000    0.2000    0.0000
  band No.  band energies     occupation 
      1     -14.2069      1.00000
      2     -13.5661      1.00000
      3     -13.2228      1.00000
      4     -13.1634      1.00000
      5     -12.8809      1.00000
      6     -12.7282      1.00000
      7     -10.3576      1.00000
      8      -8.5969      1.00000
      9      -6.4837      1.00000
     10      -5.9799      1.00000
     11      -5.9680      1.00000
     12      -5.4931      1.00000
     13      -5.2314      1.00000
     14      -4.9268      1.00000
     15      -4.6036      1.00000
     16      -4.4108      1.00000
     17      -4.2792      1.00000
     18      -4.1451      1.00000
     19      -4.0393      1.00000
     20      -3.8089      1.00000
     21      -3.7931      1.00000
     22      -3.2723      1.00000
     23      -3.0633      1.00000
     24      -3.0339      1.00000
     25      -2.8731      1.00000
     26      -2.4146      1.00000
     27      -2.0401      1.00000
     28      -1.9552      1.00000
     29      -1.8012      1.00000
     30      -1.5228      0.00000
     31      -1.4978      0.00000
     32      -0.8754      0.00000
     33      -0.6859      0.00000
     34      -0.6002      0.00000
     35      -0.3272      0.00000
     36      -0.2341      0.00000
     37       0.3060      0.00000
     38       0.8643      0.00000
     39       1.2509      0.00000
     40       1.8216      0.00000
     41       1.9688      0.00000
     42       2.2447      0.00000
     43       2.9450      0.00000
     44       3.1015      0.00000
     45       3.1045      0.00000
     46       3.2782      0.00000
     47       3.3364      0.00000
     48       4.0156      0.00000


--------------------------------------------------------------------------------------------------------


 soft charge-density along one line, spin component           1
         0         1         2         3         4         5         6         7         8         9
 total charge-density along one line

 soft charge-density along one line, spin component           2
         0         1         2         3         4         5         6         7         8         9
 total charge-density along one line

 pseudopotential strength for first ion, spin component:           1
 -9.852  -0.108   0.000   0.000   0.000   0.578   0.031  -0.000
 -0.108 -10.107   0.000   0.000   0.000   0.031   0.653  -0.000
  0.000   0.000 -10.618   0.000   0.000  -0.000  -0.000   0.800
  0.000   0.000   0.000 -10.107   0.108  -0.000  -0.000  -0.000
  0.000   0.000   0.000   0.108  -9.852  -0.000  -0.000  -0.000
  0.578   0.031  -0.000  -0.000  -0.000   0.569  -0.010   0.000
  0.031   0.653  -0.000  -0.000  -0.000  -0.010   0.547   0.000
 -0.000  -0.000   0.800  -0.000  -0.000   0.000   0.000   0.505
 -0.000  -0.000  -0.000   0.653  -0.031   0.000   0.000   0.000
 -0.000  -0.000  -0.000  -0.031   0.578   0.000   0.000   0.000
 -0.000  -0.000   0.087  -0.000   0.000  -0.000  -0.000  -0.021
  0.000   0.000  -0.009   0.000  -0.000  -0.000  -0.000   0.002
  0.000   0.000   0.000  -0.000   0.000  -0.000  -0.000  -0.000
 -0.000  -0.000   0.000  -0.000   0.000  -0.000   0.000  -0.000
  0.000  -0.000   0.000   0.000  -0.000   0.000  -0.000  -0.000
 -0.000  -0.000  -0.000   0.000  -0.001   0.000   0.000   0.000
  0.000   0.000  -0.000   0.000  -0.000  -0.000  -0.000   0.000
 -0.001   0.000  -0.000  -0.000   0.000   0.000  -0.000   0.000
 pseudopotential strength for first ion, spin component:           2
 -9.157  -0.017   0.000   0.000   0.000   0.370   0.006  -0.000
 -0.017  -9.485   0.000   0.000   0.000   0.006   0.462  -0.000
  0.000   0.000  -9.106   0.000   0.000  -0.000  -0.000   0.358
  0.000   0.000   0.000  -9.485   0.017  -0.000  -0.000  -0.000
  0.000   0.000   0.000   0.017  -9.157  -0.000  -0.000  -0.000
  0.370   0.006  -0.000  -0.000  -0.000   0.631  -0.003   0.000
  0.006   0.462  -0.000  -0.000  -0.000  -0.003   0.606   0.000
 -0.000  -0.000   0.358  -0.000  -0.000   0.000   0.000   0.631
 -0.000  -0.000  -0.000   0.462  -0.006   0.000   0.000   0.000
 -0.000  -0.000  -0.000  -0.006   0.370   0.000   0.000   0.000
 -0.000  -0.000   0.009  -0.000   0.000  -0.000  -0.000  -0.006
  0.000   0.000  -0.003   0.000  -0.000  -0.000  -0.000   0.001
  0.000   0.000   0.000  -0.000   0.001  -0.000  -0.000  -0.000
 -0.000  -0.000   0.000  -0.000  -0.000  -0.000   0.000  -0.000
  0.001  -0.000   0.000   0.000  -0.000  -0.000  -0.000  -0.000
 -0.000  -0.000  -0.000   0.000  -0.001   0.000   0.000   0.000
  0.000   0.000  -0.000   0.000   0.000  -0.000  -0.000   0.000
 -0.001   0.000  -0.000  -0.000   0.000   0.000  -0.000   0.000
 total augmentation occupancy for first ion, spin component:           1
  1.520  -0.353   0.000   0.001  -0.000   0.089   0.162   0.000  -0.000   0.000   0.000   0.000   0.000   0.000   0.003  -0.000
 -0.353   1.421  -0.000  -0.000   0.001   0.120   0.163   0.000   0.000  -0.000  -0.000   0.000   0.000  -0.000   0.007   0.000
  0.000  -0.000   1.099  -0.000  -0.000   0.000   0.000  -0.070   0.000  -0.000   0.033   0.056  -0.000   0.000   0.000  -0.000
  0.001  -0.000  -0.000   1.421   0.353  -0.000  -0.000   0.000   0.163  -0.120  -0.000  -0.000  -0.007   0.000   0.000   0.000
 -0.000   0.001  -0.000   0.353   1.520  -0.000  -0.000  -0.000  -0.162   0.089  -0.000  -0.000   0.003  -0.000  -0.000   0.000
  0.089   0.120   0.000  -0.000  -0.000   0.070   0.036   0.000  -0.000  -0.000   0.000  -0.000  -0.000   0.000   0.012   0.000
  0.162   0.163   0.000  -0.000  -0.000   0.036   0.111   0.000  -0.000  -0.000   0.000   0.000   0.000   0.000  -0.003  -0.000
  0.000   0.000  -0.070   0.000  -0.000   0.000   0.000   0.075   0.000  -0.000   0.035  -0.018  -0.000   0.000   0.000   0.000
 -0.000   0.000   0.000   0.163  -0.162  -0.000  -0.000   0.000   0.111  -0.036   0.000   0.000   0.003   0.000   0.000  -0.000
  0.000  -0.000  -0.000  -0.120   0.089  -0.000  -0.000  -0.000  -0.036   0.070  -0.000   0.000   0.012  -0.000   0.000  -0.001
  0.000  -0.000   0.033   0.000  -0.000   0.000   0.000   0.035   0.000  -0.000   1.011  -0.206  -0.000   0.000  -0.000  -0.000
  0.000  -0.000   0.056  -0.000  -0.000  -0.000   0.000  -0.018   0.000   0.000  -0.206   0.082  -0.000  -0.000   0.000  -0.000
  0.000   0.000  -0.000  -0.007   0.003  -0.000   0.000  -0.000   0.003   0.012   0.000   0.000   0.153   0.000  -0.000  -0.008
  0.000   0.000   0.000   0.000  -0.000   0.000   0.000   0.000   0.000  -0.000   0.000  -0.000   0.000   0.162   0.000  -0.000
  0.003   0.007   0.000   0.000  -0.000   0.012  -0.003   0.000   0.000   0.000  -0.000  -0.000  -0.000   0.000   0.153   0.000
 -0.000   0.000  -0.000   0.000   0.000   0.000  -0.000   0.000  -0.000  -0.001  -0.000   0.000  -0.008  -0.000   0.000   0.001
  0.000  -0.000   0.000   0.000  -0.000  -0.000  -0.000  -0.000  -0.000   0.000  -0.000   0.000  -0.000  -0.009  -0.000   0.000
  0.000  -0.000   0.000   0.000   0.000  -0.001   0.000  -0.000  -0.000  -0.000   0.000   0.000  -0.000  -0.000  -0.008  -0.000
 total augmentation occupancy for first ion, spin component:           2
  0.137   0.068   0.000  -0.000  -0.000  -0.060  -0.006  -0.000  -0.000   0.000  -0.000   0.000   0.000  -0.000   0.006   0.000
  0.068   0.074   0.000  -0.000  -0.000   0.010  -0.050   0.000   0.000  -0.000   0.000  -0.000  -0.000   0.000  -0.002   0.000
  0.000   0.000   0.829   0.000  -0.000  -0.000  -0.000  -0.164  -0.000   0.000  -0.020   0.061  -0.000  -0.000   0.000  -0.000
 -0.000  -0.000   0.000   0.074  -0.068  -0.000  -0.000   0.000  -0.050  -0.010   0.000  -0.000   0.002   0.000  -0.000  -0.000
 -0.000  -0.000  -0.000  -0.068   0.137  -0.000  -0.000   0.000   0.006  -0.060   0.000  -0.000   0.006   0.000  -0.000   0.000
 -0.060   0.010  -0.000  -0.000  -0.000  -0.008  -0.015   0.000   0.000   0.000   0.000  -0.000  -0.000   0.000  -0.000   0.000
 -0.006  -0.050  -0.000  -0.000  -0.000  -0.015  -0.019  -0.000   0.000   0.000   0.000   0.000  -0.000   0.000   0.000   0.000
 -0.000   0.000  -0.164   0.000   0.000   0.000  -0.000   0.025  -0.000  -0.000   0.011  -0.009   0.000   0.000  -0.000  -0.000
 -0.000   0.000  -0.000  -0.050   0.006   0.000   0.000  -0.000  -0.019   0.015   0.000   0.000  -0.000  -0.000  -0.000   0.000
  0.000  -0.000   0.000  -0.010  -0.060   0.000   0.000  -0.000   0.015  -0.008  -0.000   0.000  -0.000  -0.000   0.000   0.000
 -0.000   0.000  -0.020   0.000   0.000   0.000   0.000   0.011   0.000  -0.000   0.057   0.033   0.000   0.000   0.000  -0.000
  0.000  -0.000   0.061  -0.000  -0.000  -0.000   0.000  -0.009   0.000   0.000   0.033  -0.011  -0.000   0.000  -0.000  -0.000
  0.000  -0.000  -0.000   0.002   0.006  -0.000  -0.000   0.000  -0.000  -0.000   0.000  -0.000   0.007   0.000  -0.000   0.001
 -0.000   0.000  -0.000   0.000   0.000   0.000   0.000   0.000   0.000  -0.000   0.000   0.000   0.000   0.007   0.000   0.000
  0.006  -0.002   0.000  -0.000  -0.000  -0.000   0.000  -0.000  -0.000   0.000   0.000   0.000  -0.000   0.000   0.007  -0.000
  0.000   0.000  -0.000  -0.000   0.000   0.000   0.000  -0.000   0.000   0.000  -0.000  -0.000   0.001   0.000  -0.000  -0.000
  0.000   0.000   0.000   0.000  -0.000  -0.000   0.000  -0.000   0.000   0.000   0.000  -0.000   0.000   0.001   0.000  -0.000
  0.000   0.000   0.000   0.000  -0.000   0.000  -0.000   0.000   0.000  -0.000  -0.000  -0.000   0.000   0.000   0.001   0.000


------------------------ aborting loop because EDIFF is reached ----------------------------------------





 total charge     

# of ion       s       p       d       tot
------------------------------------------
    1        0.340   0.376   6.302   7.018
    2        0.340   0.376   6.302   7.018
    3        1.169   1.226   0.084   2.479
    4        1.169   1.226   0.084   2.479
    5        1.396   1.936   0.041   3.373
    6        1.390   1.941   0.041   3.372
    7        1.395   1.936   0.041   3.372
    8        1.396   1.936   0.041   3.373
    9        1.390   1.941   0.041   3.372
   10        1.395   1.936   0.041   3.372
--------------------------------------------------
tot         11.380  14.831  13.018  39.229



 magnetization (x)

# of ion       s       p       d       tot
------------------------------------------
    1        0.013   0.013   1.230   1.257
    2        0.013   0.013   1.230   1.257
    3       -0.004  -0.002  -0.001  -0.007
    4       -0.004  -0.002  -0.001  -0.007
    5       -0.002  -0.063  -0.001  -0.065
    6       -0.002  -0.042  -0.001  -0.045
    7       -0.002  -0.058  -0.001  -0.061
    8       -0.002  -0.063  -0.001  -0.065
    9       -0.002  -0.042  -0.001  -0.045
   10       -0.002  -0.058  -0.001  -0.061
--------------------------------------------------
tot          0.008  -0.304   2.452   2.157

    CHARGE:  cpu time    1.9680: real time    2.0729
    FORLOC:  cpu time    0.0640: real time    0.0608
    FORNL :  cpu time    6.6920: real time    6.6973
    STRESS:  cpu time   19.6120: real time   19.8784
    FORCOR:  cpu time   51.3520: real time   51.6240
    FORHAR:  cpu time    0.3280: real time    0.3266
    MIXING:  cpu time    0.0400: real time    0.0403
    OFIELD:  cpu time    0.0000: real time    0.0000

  FORCE on cell =-STRESS in cart. coord.  units (eV):
  Direction    XX          YY          ZZ          XY          YZ          ZX
  --------------------------------------------------------------------------------------
  Alpha Z    19.70263    19.70263    19.70263
  Ewald    8348.86338  8348.86116-10047.76566    -0.00163    -0.00049    -0.00090
  Hartree  8823.13475  8823.13547 -8495.34074    -0.00019     0.00007     0.00012
  E(xc)    -250.51205  -250.51202  -249.19889     0.00001     0.00002     0.00002
  Local  -18019.47623-18019.47558 17678.03416     0.00154     0.00032     0.00060
  n-local   641.88846   641.45407   656.63039    -0.10824     1.09387     1.31005
  augment   -76.62519   -76.62510   -89.48640     0.00008     0.00002     0.00003
  Kinetic   515.02653   511.34040   527.07496    -2.67300     1.00101     1.31291
  Fock        0.00000     0.00000     0.00000     0.00000     0.00000     0.00000
  -------------------------------------------------------------------------------------
  Total      -0.05835    -0.05835    -0.34954     0.00000     0.00000     0.00000
  in kB      -0.10432    -0.10432    -0.62496     0.00000     0.00000     0.00000
  external pressure =       -0.28 kB  Pullay stress =        0.00 kB


 VOLUME and BASIS-vectors are now :
 -----------------------------------------------------------------------------
  energy-cutoff  :      520.00
  volume of cell :      896.10
      direct lattice vectors                 reciprocal lattice vectors
     6.826971560  0.000000050  0.000000000     0.146477834 -0.084569008 -0.000000000
     3.413485255  5.912330475  0.000000000    -0.000000001  0.169138043  0.000000000
     0.000000000 -0.000000000 22.200959034    -0.000000000 -0.000000000  0.045043099

  length of vectors
     6.826971560  6.826971014 22.200959034     0.169138029  0.169138043  0.045043099


 FORCES acting on ions
    electron-ion (+dipol)            ewald-force                    non-local-force                 convergence-correction
 -----------------------------------------------------------------------------------------------
   0.482E-04 0.209E-04 0.989E+00   0.497E-03 0.299E-03 -.999E+00   -.649E-18 -.434E-18 0.587E-02   -.663E-07 -.107E-06 -.130E-03
   -.482E-04 -.209E-04 -.989E+00   -.497E-03 -.299E-03 0.999E+00   0.152E-17 0.434E-18 -.587E-02   0.663E-07 0.107E-06 0.130E-03
   -.346E-04 -.148E-04 0.179E+03   -.144E-03 -.794E-04 -.178E+03   0.299E-17 0.356E-17 -.263E+01   -.181E-08 -.467E-08 0.245E-01
   0.346E-04 0.148E-04 -.179E+03   0.144E-03 0.794E-04 0.178E+03   -.212E-17 -.356E-17 0.263E+01   0.181E-08 0.467E-08 -.245E-01
   -.203E+02 0.152E+00 -.385E+03   0.163E+02 -.146E+00 0.389E+03   0.340E+01 -.147E-01 -.507E+01   -.246E-02 0.830E-05 -.556E-01
   0.103E+02 0.175E+02 -.385E+03   -.828E+01 -.141E+02 0.389E+03   -.171E+01 -.294E+01 -.507E+01   0.124E-02 0.213E-02 -.556E-01
   0.100E+02 -.177E+02 -.385E+03   -.803E+01 0.142E+02 0.389E+03   -.169E+01 0.295E+01 -.507E+01   0.122E-02 -.214E-02 -.556E-01
   0.203E+02 -.152E+00 0.385E+03   -.163E+02 0.146E+00 -.389E+03   -.340E+01 0.147E-01 0.507E+01   0.246E-02 -.830E-05 0.556E-01
   -.103E+02 -.175E+02 0.385E+03   0.828E+01 0.141E+02 -.389E+03   0.171E+01 0.294E+01 0.507E+01   -.124E-02 -.213E-02 0.556E-01
   -.100E+02 0.177E+02 0.385E+03   0.803E+01 -.142E+02 -.389E+03   0.169E+01 -.295E+01 0.507E+01   -.122E-02 0.214E-02 0.556E-01
 -----------------------------------------------------------------------------------------------
   0.734E-10 0.782E-10 -.241E-09   -.533E-14 -.711E-14 0.568E-13   -.444E-15 0.000E+00 0.888E-15   0.127E-12 0.141E-12 -.277E-11


 POSITION                                       TOTAL-FORCE (eV/Angst)
 -----------------------------------------------------------------------------------
      3.41348      1.97077     11.09858         0.000000     -0.000000     -0.004497
      6.82697      3.94156     11.10238        -0.000000     -0.000000      0.004497
      0.00000     -0.00000      9.95083        -0.000000     -0.000000     -1.399949
      0.00000     -0.00000     12.25013         0.000000     -0.000000      1.399949
      4.27756      0.00248     12.73784        -0.634839     -0.008118     -0.332920
      1.27686      2.20662     12.73784         0.310389      0.553846     -0.332920
      4.68605      3.70323     12.73784         0.324450     -0.545728     -0.332920
      5.96290      5.90985      9.46311         0.634839      0.008118      0.332920
      8.96359      3.70571      9.46311        -0.310389     -0.553846      0.332920
      5.55441      2.20910      9.46311        -0.324450      0.545728      0.332920
 -----------------------------------------------------------------------------------
    total drift:                                0.000000      0.000000     -0.000000


--------------------------------------------------------------------------------------------------------



  FREE ENERGIE OF THE ION-ELECTRON SYSTEM (eV)
  ---------------------------------------------------
  free  energy   TOTEN  =       -37.09195583 eV

  energy  without entropy=      -37.09195583  energy(sigma->0) =      -37.09195583

 d Force =-0.1048889E-07[-0.106E-07,-0.104E-07]  d Energy = 0.2448415E-03-0.245E-03
 d Force =-0.2355028E-05[-0.235E-05,-0.236E-05]  d Ewald  =-0.9743478E-01 0.974E-01


--------------------------------------------------------------------------------------------------------


    POTLOK:  cpu time   51.9240: real time   52.7178


--------------------------------------------------------------------------------------------------------




--------------------------------------------------------------------------------------------------------


  
 reached required accuracy - stopping structural energy minimisation
     LOOP+:  cpu time  346.7760: real time  350.3704
    4ORBIT:  cpu time    0.0000: real time    0.0000



 total charge     

# of ion       s       p       d       tot
------------------------------------------
    1        0.340   0.376   6.302   7.018
    2        0.340   0.376   6.302   7.018
    3        1.169   1.226   0.084   2.479
    4        1.169   1.226   0.084   2.479
    5        1.396   1.936   0.041   3.373
    6        1.390   1.941   0.041   3.372
    7        1.395   1.936   0.041   3.372
    8        1.396   1.936   0.041   3.373
    9        1.390   1.941   0.041   3.372
   10        1.395   1.936   0.041   3.372
--------------------------------------------------
tot         11.380  14.831  13.018  39.229



 magnetization (x)

# of ion       s       p       d       tot
------------------------------------------
    1        0.013   0.013   1.230   1.257
    2        0.013   0.013   1.230   1.257
    3       -0.004  -0.002  -0.001  -0.007
    4       -0.004  -0.002  -0.001  -0.007
    5       -0.002  -0.063  -0.001  -0.065
    6       -0.002  -0.042  -0.001  -0.045
    7       -0.002  -0.058  -0.001  -0.061
    8       -0.002  -0.063  -0.001  -0.065
    9       -0.002  -0.042  -0.001  -0.045
   10       -0.002  -0.058  -0.001  -0.061
--------------------------------------------------
tot          0.008  -0.304   2.452   2.157

 BZINTS: Fermi energy: -1.772686; 60.000000 electrons
         Band energy:-375.840011;  BLOECHL correction:  0.000000

 total amount of memory used by VASP MPI-rank0   130023. kBytes
=======================================================================

   base      :      30000. kBytes
   nonlr-proj:       9713. kBytes
   fftplans  :      11247. kBytes
   grid      :      66142. kBytes
   one-center:        311. kBytes
   wavefun   :      12610. kBytes

  
  
 General timing and accounting informations for this job:
 ========================================================
  
                  Total CPU time used (sec):     8789.112
                            User time (sec):     8573.100
                          System time (sec):      216.012
                         Elapsed time (sec):     8865.527
  
                   Maximum memory used (kb):      382800.
                   Average memory used (kb):           0.
  
                          Minor page faults:      8208545
                          Major page faults:            7
                 Voluntary context switches:         1034
