 vasp.5.4.4.18Apr17-6-g9f103f2a35 (build May  1 2020 15:48:39) complex           
 executed on             LinuxGNU date 2020.06.29  05:03:34
 running on   16 total cores
 distrk:  each k-point on   16 cores,    1 groups
 distr:  one band on NCORES_PER_BAND=   1 cores,   16 groups


--------------------------------------------------------------------------------------------------------


 INCAR:
 POTCAR:   PAW_PBE Co 06Sep2000                   
 POTCAR:   PAW_PBE Si 05Jan2001                   
 POTCAR:    PAW_PBE S 17Jan2003                   

 ----------------------------------------------------------------------------- 
|                                                                             |
|           W    W    AA    RRRRR   N    N  II  N    N   GGGG   !!!           |
|           W    W   A  A   R    R  NN   N  II  NN   N  G    G  !!!           |
|           W    W  A    A  R    R  N N  N  II  N N  N  G       !!!           |
|           W WW W  AAAAAA  RRRRR   N  N N  II  N  N N  G  GGG   !            |
|           WW  WW  A    A  R   R   N   NN  II  N   NN  G    G                |
|           W    W  A    A  R    R  N    N  II  N    N   GGGG   !!!           |
|                                                                             |
|      For optimal performance we recommend to set                            |
|        NCORE= 4 - approx SQRT( number of cores)                             |
|      NCORE specifies how many cores store one orbital (NPAR=cpu/NCORE).     |
|      This setting can  greatly improve the performance of VASP for DFT.     |
|      The default,   NCORE=1            might be grossly inefficient         |
|      on modern multi-core architectures or massively parallel machines.     |
|      Do your own testing !!!!                                               |
|      Unfortunately you need to use the default for GW and RPA calculations. |
|      (for HF NCORE is supported but not extensively tested yet)             |
|                                                                             |
 ----------------------------------------------------------------------------- 


 ----------------------------------------------------------------------------- 
|                                                                             |
|  ADVICE TO THIS USER RUNNING 'VASP/VAMP'   (HEAR YOUR MASTER'S VOICE ...):  |
|                                                                             |
|      You have switched on vdW-DFT.                                          |
|      This routine was written and supplied by Jiri Klimes.                  |
|      We recommed that you carefully read and cite the following             |
|      publication                                                            |
|      J. Klimes, D.R. Bowler, A. Michelides                                  |
|        J. Phys.: Cond Matt. 22 022201 (2010)                                |
|      J. Klimes, D.R. Bowler, A. Michelides                                  |
|        Phys. Rev. B. 83, 195131 (2011)                                      |
|      and references therein.                                                |
|                                                                             |
 ----------------------------------------------------------------------------- 

 POTCAR:   PAW_PBE Co 06Sep2000                   
   VRHFIN =Co: d8 s1                                                            
   LEXCH  = PE                                                                  
   EATOM  =   813.5563 eV,   59.7947 Ry                                         
                                                                                
   TITEL  = PAW_PBE Co 06Sep2000                                                
   LULTRA =        F    use ultrasoft PP ?                                      
   IUNSCR =        1    unscreen: 0-lin 1-nonlin 2-no                           
   RPACOR =    2.000    partial core radius                                     
   POMASS =   58.933; ZVAL   =    9.000    mass and valenz                      
   RCORE  =    2.300    outmost cutoff radius                                   
   RWIGS  =    2.460; RWIGS  =    1.302    wigner-seitz radius (au A)           
   ENMAX  =  267.969; ENMIN  =  200.977 eV                                      
   RCLOC  =    1.697    cutoff for local pot                                    
   LCOR   =        T    correct aug charges                                     
   LPAW   =        T    paw PP                                                  
   EAUG   =  477.818                                                            
   DEXC   =    -.016                                                            
   RMAX   =    2.817    core radius for proj-oper                               
   RAUG   =    1.300    factor for augmentation sphere                          
   RDEP   =    2.393    radius for radial grids                                 
   QCUT   =   -4.438; QGAM   =    8.876    optimization parameters              
                                                                                
   Description                                                                  
     l     E      TYP  RCUT    TYP  RCUT                                        
     2   .000     23  2.300                                                     
     2   .000     23  2.300                                                     
     0   .000     23  2.300                                                     
     0   .000     23  2.300                                                     
     1  -.200     23  2.300                                                     
     1   .000     23  2.300                                                     
     3   .000      7   .000                                                     
  local pseudopotential read in
  partial core-charges read in
  atomic valenz-charges read in
  non local Contribution for L=           2  read in
    real space projection operators read in
  non local Contribution for L=           2  read in
    real space projection operators read in
  non local Contribution for L=           0  read in
    real space projection operators read in
  non local Contribution for L=           0  read in
    real space projection operators read in
  non local Contribution for L=           1  read in
    real space projection operators read in
  non local Contribution for L=           1  read in
    real space projection operators read in
    PAW grid and wavefunctions read in

   number of l-projection  operators is LMAX  =           6
   number of lm-projection operators is LMMAX =          18

 POTCAR:   PAW_PBE Si 05Jan2001                   
   VRHFIN =Si: s2p2                                                             
   LEXCH  = PE                                                                  
   EATOM  =   103.0669 eV,    7.5752 Ry                                         
                                                                                
   TITEL  = PAW_PBE Si 05Jan2001                                                
   LULTRA =        F    use ultrasoft PP ?                                      
   IUNSCR =        1    unscreen: 0-lin 1-nonlin 2-no                           
   RPACOR =    1.500    partial core radius                                     
   POMASS =   28.085; ZVAL   =    4.000    mass and valenz                      
   RCORE  =    1.900    outmost cutoff radius                                   
   RWIGS  =    2.480; RWIGS  =    1.312    wigner-seitz radius (au A)           
   ENMAX  =  245.345; ENMIN  =  184.009 eV                                      
   ICORE  =        2    local potential                                         
   LCOR   =        T    correct aug charges                                     
   LPAW   =        T    paw PP                                                  
   EAUG   =  322.069                                                            
   DEXC   =    -.007                                                            
   RMAX   =    2.944    core radius for proj-oper                               
   RAUG   =    1.300    factor for augmentation sphere                          
   RDEP   =    1.993    radius for radial grids                                 
   QCUT   =   -4.246; QGAM   =    8.493    optimization parameters              
                                                                                
   Description                                                                  
     l     E      TYP  RCUT    TYP  RCUT                                        
     0   .000     23  1.900                                                     
     0   .000     23  1.900                                                     
     1   .000     23  1.900                                                     
     1   .000     23  1.900                                                     
     2   .000      7  1.900                                                     
  local pseudopotential read in
  partial core-charges read in
  atomic valenz-charges read in
  non local Contribution for L=           0  read in
    real space projection operators read in
  non local Contribution for L=           0  read in
    real space projection operators read in
  non local Contribution for L=           1  read in
    real space projection operators read in
  non local Contribution for L=           1  read in
    real space projection operators read in
    PAW grid and wavefunctions read in

   number of l-projection  operators is LMAX  =           4
   number of lm-projection operators is LMMAX =           8

 POTCAR:    PAW_PBE S 17Jan2003                   
   VRHFIN =S : s2p4                                                             
   LEXCH  = PE                                                                  
   EATOM  =   276.8230 eV,   20.3459 Ry                                         
                                                                                
   TITEL  = PAW_PBE S 17Jan2003                                                 
   LULTRA =        F    use ultrasoft PP ?                                      
   IUNSCR =        1    unscreen: 0-lin 1-nonlin 2-no                           
   RPACOR =    1.500    partial core radius                                     
   POMASS =   32.066; ZVAL   =    6.000    mass and valenz                      
   RCORE  =    1.900    outmost cutoff radius                                   
   RWIGS  =    2.200; RWIGS  =    1.164    wigner-seitz radius (au A)           
   ENMAX  =  280.000; ENMIN  =  194.016 eV                                      
   ICORE  =        2    local potential                                         
   LCOR   =        T    correct aug charges                                     
   LPAW   =        T    paw PP                                                  
   EAUG   =  335.092                                                            
   DEXC   =     .000                                                            
   RMAX   =    2.867    core radius for proj-oper                               
   RAUG   =    1.300    factor for augmentation sphere                          
   RDEP   =    1.954    radius for radial grids                                 
   QCUT   =   -4.360; QGAM   =    8.721    optimization parameters              
                                                                                
   Description                                                                  
     l     E      TYP  RCUT    TYP  RCUT                                        
     0   .000     23  1.900                                                     
     0   .000     23  1.900                                                     
     1   .000     23  1.900                                                     
     1   .000     23  1.900                                                     
     2   .000     23  1.900                                                     
  local pseudopotential read in
  partial core-charges read in
  atomic valenz-charges read in
  non local Contribution for L=           0  read in
    real space projection operators read in
  non local Contribution for L=           0  read in
    real space projection operators read in
  non local Contribution for L=           1  read in
    real space projection operators read in
  non local Contribution for L=           1  read in
    real space projection operators read in
    PAW grid and wavefunctions read in

   number of l-projection  operators is LMAX  =           4
   number of lm-projection operators is LMMAX =           8

 Optimization of the real space projectors (new method)

 maximal supplied QI-value         = 16.25
 optimisation between [QCUT,QGAM] = [ 11.54, 23.24] = [ 37.28,151.24] Ry 
 Optimized for a Real-space Cutoff    1.53 Angstroem

   l    n(q)    QCUT    max X(q) W(low)/X(q) W(high)/X(q)  e(spline) 
   2     10    11.539     4.599    0.83E-05    0.15E-04    0.45E-07
   2     10    11.539    18.158    0.10E-03    0.14E-03    0.24E-06
   0     11    11.539    15.740    0.19E-04    0.12E-05    0.17E-07
   0     11    11.539    47.662    0.48E-04    0.15E-04    0.31E-06
   1     10    11.539     5.777    0.11E-04    0.46E-05    0.25E-07
   1     10    11.539     8.007    0.46E-04    0.29E-04    0.11E-06
 Optimization of the real space projectors (new method)

 maximal supplied QI-value         = 19.84
 optimisation between [QCUT,QGAM] = [ 11.51, 23.22] = [ 37.09,150.92] Ry 
 Optimized for a Real-space Cutoff    1.21 Angstroem

   l    n(q)    QCUT    max X(q) W(low)/X(q) W(high)/X(q)  e(spline) 
   0      8    11.508     8.708    0.18E-04    0.44E-05    0.47E-08
   0      8    11.508   106.241    0.70E-04    0.15E-03    0.51E-07
   1      8    11.508     5.901    0.63E-05    0.23E-04    0.21E-07
   1      8    11.508    73.241    0.15E-03    0.36E-04    0.79E-07
 Optimization of the real space projectors (new method)

 maximal supplied QI-value         = 19.84
 optimisation between [QCUT,QGAM] = [ 11.51, 23.22] = [ 37.09,150.92] Ry 
 Optimized for a Real-space Cutoff    1.21 Angstroem

   l    n(q)    QCUT    max X(q) W(low)/X(q) W(high)/X(q)  e(spline) 
   0      8    11.508     5.487    0.18E-04    0.22E-05    0.47E-08
   0      8    11.508    85.627    0.96E-04    0.18E-03    0.54E-07
   1      8    11.508     3.530    0.17E-04    0.28E-04    0.21E-07
   1      8    11.508    42.714    0.18E-03    0.63E-04    0.92E-07

 ----------------------------------------------------------------------------- 
|                                                                             |
|  ADVICE TO THIS USER RUNNING 'VASP/VAMP'   (HEAR YOUR MASTER'S VOICE ...):  |
|                                                                             |
|      You enforced a specific xc-type in the INCAR file,                     |
|      a different type was found on the POTCAR file                          |
|          I HOPE YOU KNOW, WHAT YOU ARE  DOING                               |
|                                                                             |
 ----------------------------------------------------------------------------- 

 PAW_PBE Co 06Sep2000                   :
 energy of atom  1       EATOM= -813.5563
 kinetic energy error for atom=    0.0028 (will be added to EATOM!!)
 PAW_PBE Si 05Jan2001                   :
 energy of atom  2       EATOM= -103.0669
 kinetic energy error for atom=    0.0005 (will be added to EATOM!!)
  PAW_PBE S 17Jan2003                   :
 energy of atom  3       EATOM= -276.8230
 kinetic energy error for atom=    0.0016 (will be added to EATOM!!)


 POSCAR: Co2 Si2 S6                              
  positions in direct lattice
  velocities in cartesian coordinates
  No initial velocities read in
 exchange correlation table for  LEXCH =       42
   RHO(1)=    0.500       N(1)  =     2000
   RHO(2)=  100.500       N(2)  =     4000



--------------------------------------------------------------------------------------------------------


 ion  position               nearest neighbor table
   1  0.333  0.333  0.500-   6 2.78   5 2.78   7 2.78   8 2.78  10 2.78   9 2.78
   2  0.667  0.667  0.500-   9 2.78   8 2.78  10 2.78   5 2.78   7 2.78   6 2.78
   3  0.000  0.000  0.448-   4 2.43   8 2.63  10 2.63   9 2.63
   4  0.000  0.000  0.552-   3 2.43   5 2.63   7 2.63   6 2.63
   5  0.626  0.000  0.574-   4 2.63   1 2.78   2 2.78
   6  0.000  0.373  0.574-   4 2.63   1 2.78   2 2.78
   7  0.373  0.626  0.574-   4 2.63   1 2.78   2 2.78
   8  0.374  1.000  0.426-   3 2.63   2 2.78   1 2.78
   9  1.000  0.627  0.426-   3 2.63   2 2.78   1 2.78
  10  0.627  0.374  0.426-   3 2.63   2 2.78   1 2.78

  LATTYP: Found a hexagonal cell.
 ALAT       =     6.9077769333
 C/A-ratio  =     3.3939410937
  
  Lattice vectors:
  
 A1 = (   3.4538890000,  -5.9823100000,   0.0000000000)
 A2 = (  -6.9077770000,   0.0000000000,   0.0000000000)
 A3 = (   0.0000000000,   0.0000000000, -23.4445880000)


Analysis of symmetry for initial positions (statically):
=====================================================================
 Subroutine PRICEL returns:
 Original cell was already a primitive cell.
 

 Routine SETGRP: Setting up the symmetry group for a 
 hexagonal supercell.


 Subroutine GETGRP returns: Found  6 space group operations
 (whereof  6 operations were pure point group operations)
 out of a pool of 24 trial point group operations.


The static configuration has the point symmetry S_6 .


Analysis of symmetry for dynamics (positions and initial velocities):
=====================================================================
 Subroutine PRICEL returns:
 Original cell was already a primitive cell.
 

 Routine SETGRP: Setting up the symmetry group for a 
 hexagonal supercell.


 Subroutine GETGRP returns: Found  6 space group operations
 (whereof  6 operations were pure point group operations)
 out of a pool of 24 trial point group operations.


The dynamic configuration has the point symmetry S_6 .


Analysis of constrained symmetry for selective dynamics:
=====================================================================
 Subroutine PRICEL returns:
 Original cell was already a primitive cell.
 

 Routine SETGRP: Setting up the symmetry group for a 
 hexagonal supercell.


 Subroutine GETGRP returns: Found  6 space group operations
 (whereof  6 operations were pure point group operations)
 out of a pool of 24 trial point group operations.


The constrained configuration has the point symmetry S_6 .


Analysis of structural, dynamic, and magnetic symmetry:
=====================================================================
 Subroutine PRICEL returns:
 Original cell was already a primitive cell.
 

 Routine SETGRP: Setting up the symmetry group for a 
 hexagonal supercell.


 Subroutine GETGRP returns: Found  6 space group operations
 (whereof  6 operations were pure point group operations)
 out of a pool of 24 trial point group operations.


The magnetic configuration has the point symmetry S_6 .


 Subroutine INISYM returns: Found  6 space group operations
 (whereof  6 operations are pure point group operations),
 and found     1 'primitive' translations



 KPOINTS: Kpoints from vasprun.xml                

Automatic generation of k-mesh.
Space group operators:
 irot       det(A)        alpha          n_x          n_y          n_z        tau_x        tau_y        tau_z
    1     1.000000     0.000000     1.000000     0.000000     0.000000     0.000000     0.000000     0.000000
    2    -1.000000     0.000000     1.000000     0.000000     0.000000     0.000000     0.000000     0.000000
    3     1.000000   120.000000     0.000000     0.000000     1.000000     0.000000     0.000000     0.000000
    4    -1.000000   120.000000     0.000000     0.000000     1.000000     0.000000     0.000000     0.000000
    5     1.000000   120.000000     0.000000     0.000000    -1.000000     0.000000     0.000000     0.000000
    6    -1.000000   120.000000     0.000000     0.000000    -1.000000     0.000000     0.000000     0.000000
 
 Subroutine IBZKPT returns following result:
 ===========================================
 
 Found      5 irreducible k-points:
 
 Following reciprocal coordinates:
            Coordinates               Weight
  0.000000  0.000000  0.000000      1.000000
  0.200000  0.000000  0.000000      6.000000
  0.400000  0.000000  0.000000      6.000000
  0.400000  0.200000  0.000000      6.000000
 -0.400000  0.200000  0.000000      6.000000
 
 Following cartesian coordinates:
            Coordinates               Weight
  0.000000  0.000000  0.000000      1.000000
  0.028953 -0.016716  0.000000      6.000000
  0.057906 -0.033432  0.000000      6.000000
  0.057906  0.000000  0.000000      6.000000
 -0.057906  0.066864  0.000000      6.000000
 
 TETIRR: Found     15 inequivalent tetrahedra from      150


--------------------------------------------------------------------------------------------------------




 Dimension of arrays:
   k-points           NKPTS =      5   k-points in BZ     NKDIM =      5   number of bands    NBANDS=     48
   number of dos      NEDOS =    301   number of ions     NIONS =     10
   non local maximal  LDIM  =      6   non local SUM 2l+1 LMDIM =     18
   total plane-waves  NPLWV = 524880
   max r-space proj   IRMAX =   8238   max aug-charges    IRDMAX=  21564
   dimension x,y,z NGX =    54 NGY =   54 NGZ =  180
   dimension x,y,z NGXF=   108 NGYF=  108 NGZF=  360
   support grid    NGXF=   108 NGYF=  108 NGZF=  360
   ions per type =               2   2   6
   NGX,Y,Z   is equivalent  to a cutoff of  13.00, 13.00, 12.76 a.u.
   NGXF,Y,Z  is equivalent  to a cutoff of  25.99, 25.99, 25.53 a.u.

 SYSTEM =  unknown system                          
 POSCAR =  Co2 Si2 S6                              

 Startparameter for this run:
   NWRITE =      2    write-flag & timer
   PREC   = accura    normal or accurate (medium, high low for compatibility)
   ISTART =      0    job   : 0-new  1-cont  2-samecut
   ICHARG =      2    charge: 1-file 2-atom 10-const
   ISPIN  =      2    spin polarized calculation?
   LNONCOLLINEAR =      F non collinear calculations
   LSORBIT =      F    spin-orbit coupling
   INIWAV =      1    electr: 0-lowe 1-rand  2-diag
   LASPH  =      F    aspherical Exc in radial PAW
   METAGGA=      F    non-selfconsistent MetaGGA calc.

 Electronic Relaxation 1
   ENCUT  =  520.0 eV  38.22 Ry    6.18 a.u.  12.84 12.84 43.59*2*pi/ulx,y,z
   ENINI  =  520.0     initial cutoff
   ENAUG  =  477.8 eV  augmentation charge cutoff
   NELM   =    400;   NELMIN=  2; NELMDL=  0     # of ELM steps 
   EDIFF  = 0.1E-03   stopping-criterion for ELM
   LREAL  =      T    real-space projection
   NLSPLINE    = F    spline interpolate recip. space projectors
   LCOMPAT=      F    compatible to vasp.4.4
   GGA_COMPAT  = T    GGA compatible to vasp.4.4-vasp.4.6
   LMAXPAW     = -100 max onsite density
   LMAXMIX     =    2 max onsite mixed and CHGCAR
   VOSKOWN=      0    Vosko Wilk Nusair interpolation
   ROPT   =   -0.00025  -0.00025  -0.00025
 Ionic relaxation
   EDIFFG = 0.1E-02   stopping-criterion for IOM
   NSW    =     99    number of steps for IOM
   NBLOCK =      1;   KBLOCK =     99    inner block; outer block 
   IBRION =      2    ionic relax: 0-MD 1-quasi-New 2-CG
   NFREE  =      1    steps in history (QN), initial steepest desc. (CG)
   ISIF   =      3    stress and relaxation
   IWAVPR =     11    prediction:  0-non 1-charg 2-wave 3-comb
   ISYM   =      2    0-nonsym 1-usesym 2-fastsym
   LCORR  =      T    Harris-Foulkes like correction to forces

   POTIM  = 0.5000    time-step for ionic-motion
   TEIN   =    0.0    initial temperature
   TEBEG  =    0.0;   TEEND  =   0.0 temperature during run
   SMASS  =  -3.00    Nose mass-parameter (am)
   estimated Nose-frequenzy (Omega)   =  0.10E-29 period in steps =****** mass=  -0.109E-26a.u.
   SCALEE = 1.0000    scale energy and forces
   NPACO  =    256;   APACO  = 16.0  distance and # of slots for P.C.
   PSTRESS=    0.0 pullay stress

  Mass of Ions in am
   POMASS =  58.93 28.09 32.07
  Ionic Valenz
   ZVAL   =   9.00  4.00  6.00
  Atomic Wigner-Seitz radii
   RWIGS  =  -1.00 -1.00 -1.00
  virtual crystal weights 
   VCA    =   1.00  1.00  1.00
   NELECT =      62.0000    total number of electrons
   NUPDOWN=      -1.0000    fix difference up-down

 DOS related values:
   EMIN   =  10.00;   EMAX   =-10.00  energy-range for DOS
   EFERMI =   0.00
   ISMEAR =    -5;   SIGMA  =   0.05  broadening in eV -4-tet -1-fermi 0-gaus

 Electronic relaxation 2 (details)
   IALGO  =     38    algorithm
   LDIAG  =      T    sub-space diagonalisation (order eigenvalues)
   LSUBROT=      F    optimize rotation matrix (better conditioning)
   TURBO    =      0    0=normal 1=particle mesh
   IRESTART =      0    0=no restart 2=restart with 2 vectors
   NREBOOT  =      0    no. of reboots
   NMIN     =      0    reboot dimension
   EREF     =   0.00    reference energy to select bands
   IMIX   =      4    mixing-type and parameters
     AMIX     =   0.40;   BMIX     =  1.00
     AMIX_MAG =   1.60;   BMIX_MAG =  1.00
     AMIN     =   0.01
     WC   =   100.;   INIMIX=   1;  MIXPRE=   1;  MAXMIX= -45

 Intra band minimization:
   WEIMIN = 0.0010     energy-eigenvalue tresh-hold
   EBREAK =  0.52E-06  absolut break condition
   DEPER  =   0.30     relativ break condition  

   TIME   =   0.40     timestep for ELM

  volume/ion in A,a.u.               =      96.88       653.80
  Fermi-wavevector in a.u.,A,eV,Ry     =   0.654820  1.237431  5.834037  0.428790
  Thomas-Fermi vector in A             =   1.725500

 Write flags
   LWAVE        =      F    write WAVECAR
   LDOWNSAMPLE  =      F    k-point downsampling of WAVECAR
   LCHARG       =      T    write CHGCAR
   LVTOT        =      F    write LOCPOT, total local potential
   LVHAR        =      F    write LOCPOT, Hartree potential only
   LELF         =      F    write electronic localiz. function (ELF)
   LORBIT       =     11    0 simple, 1 ext, 2 COOP (PROOUT), +10 PAW based schemes


 Dipole corrections
   LMONO  =      F    monopole corrections only (constant potential shift)
   LDIPOL =      F    correct potential (dipole corrections)
   IDIPOL =      0    1-x, 2-y, 3-z, 4-all directions 
   EPSILON=  1.0000000 bulk dielectric constant

 Exchange correlation treatment:
   GGA     =    BO    GGA type
   LEXCH   =    42    internal setting for exchange type
   VOSKOWN=      0    Vosko Wilk Nusair interpolation
   LHFCALC =     F    Hartree Fock is set to
   LHFONE  =     F    Hartree Fock one center treatment
   AEXX    =    0.0000 exact exchange contribution

 vdW DFT:
   LUSE_VDW   =     T    switch on vdW DFT
   Zab_VDW    =-.8491    correlation parameter
   PARAM1     =0.1833
   PARAM2     =0.2200
   PARAM3     =0.0000
   -- rVV10 --
   BPARAM     = 6.3000
   CPARAM     = 0.0093

 Linear response parameters
   LEPSILON=     F    determine dielectric tensor
   LRPA    =     F    only Hartree local field effects (RPA)
   LNABLA  =     F    use nabla operator in PAW spheres
   LVEL    =     F    velocity operator in full k-point grid
   LINTERFAST=   F  fast interpolation
   KINTER  =     0    interpolate to denser k-point grid
   CSHIFT  =0.1000    complex shift for real part using Kramers Kronig
   OMEGAMAX=  -1.0    maximum frequency
   DEG_THRESHOLD= 0.2000000E-02 threshold for treating states as degnerate
   RTIME   =   -0.100 relaxation time in fs
  (WPLASMAI=    0.000 imaginary part of plasma frequency in eV, 0.658/RTIME)
   DFIELD  = 0.0000000 0.0000000 0.0000000 field for delta impulse in time

 Orbital magnetization related:
   ORBITALMAG=     F  switch on orbital magnetization
   LCHIMAG   =     F  perturbation theory with respect to B field
   DQ        =  0.001000  dq finite difference perturbation B field
   LLRAUG    =     F  two centre corrections for induced B field



--------------------------------------------------------------------------------------------------------


 conjugate gradient relaxation of ions
   using selective dynamics as specified on POSCAR
 charge density and potential will be updated during run
 spin polarized calculation
 Variant of blocked Davidson
 Davidson routine will perform the subspace rotation
 perform sub-space diagonalisation
    after iterative eigenvector-optimisation
 modified Broyden-mixing scheme, WC =      100.0
 initial mixing is a Kerker type mixing with AMIX =  0.4000 and BMIX =      1.0000
 Hartree-type preconditioning will be used
 using additional bands           17
 real space projection scheme for non local part
 use partial core corrections
 calculate Harris-corrections to forces   (improved forces if not selfconsistent)
 use gradient corrections 
 use of overlap-Matrix (Vanderbilt PP)
 Fermi weights with tetrahedron method with Bloechl corrections


--------------------------------------------------------------------------------------------------------


  energy-cutoff  :      520.00
  volume of cell :      968.84
      direct lattice vectors                 reciprocal lattice vectors
     6.907777000 -0.000000000  0.000000000     0.144764372 -0.083579742  0.000000000
     3.453888000  5.982310000  0.000000000     0.000000000  0.167159509 -0.000000000
     0.000000000  0.000000000 23.444588000    -0.000000000  0.000000000  0.042653767

  length of vectors
     6.907777000  6.907776433 23.444588000     0.167159495  0.167159509  0.042653767



 k-points in units of 2pi/SCALE and weight: Kpoints from vasprun.xml                
   0.00000000  0.00000000  0.00000000       0.040
   0.02895287 -0.01671595  0.00000000       0.240
   0.05790575 -0.03343190  0.00000000       0.240
   0.05790575  0.00000000  0.00000000       0.240
  -0.05790575  0.06686380  0.00000000       0.240

 k-points in reciprocal lattice and weights: Kpoints from vasprun.xml                
   0.00000000  0.00000000  0.00000000       0.040
   0.20000000  0.00000000  0.00000000       0.240
   0.40000000  0.00000000  0.00000000       0.240
   0.40000000  0.20000000  0.00000000       0.240
  -0.40000000  0.20000000  0.00000000       0.240

 position of ions in fractional coordinates (direct lattice) 
   0.33333300  0.33333300  0.49992500
   0.66666700  0.66666700  0.50007500
   0.00000000  0.00000000  0.44821600
   0.00000000  0.00000000  0.55178400
   0.62635700  0.00042000  0.57375200
   0.00042000  0.37322400  0.57375200
   0.37322400  0.62635700  0.57375200
   0.37364300  0.99958000  0.42624800
   0.99958000  0.62677600  0.42624800
   0.62677600  0.37364300  0.42624800

 position of ions in cartesian coordinates  (Angst):
   3.45388488  1.99410134 11.72053566
   6.90778012  3.98820866 11.72405234
   0.00000000  0.00000000 10.50823946
   0.00000000  0.00000000 12.93634854
   4.32818511  0.00251257 13.45137925
   1.29197516  2.23274167 13.45137925
   4.74151509  3.74706174 13.45137925
   6.03347989  5.97979743  9.99320875
   9.06968984  3.74956833  9.99320875
   5.62014991  2.23524826  9.99320875



--------------------------------------------------------------------------------------------------------


 k-point  1 :   0.0000 0.0000 0.0000  plane waves:   26073
 k-point  2 :   0.2000 0.0000 0.0000  plane waves:   26070
 k-point  3 :   0.4000 0.0000 0.0000  plane waves:   26086
 k-point  4 :   0.4000 0.2000 0.0000  plane waves:   26085
 k-point  5 :  -0.4000 0.2000 0.0000  plane waves:   26115

 maximum and minimum number of plane-waves per node :     26115    26070

 maximum number of plane-waves:     26115
 maximum index in each direction: 
   IXMAX=   13   IYMAX=   12   IZMAX=   43
   IXMIN=  -13   IYMIN=  -13   IZMIN=  -43


 serial   3D FFT for wavefunctions
 parallel 3D FFT for charge:
    minimum data exchange during FFTs selected (reduces bandwidth)


 total amount of memory used by VASP MPI-rank0   126399. kBytes
=======================================================================

   base      :      30000. kBytes
   nonlr-proj:       6104. kBytes
   fftplans  :      11247. kBytes
   grid      :      66142. kBytes
   one-center:        311. kBytes
   wavefun   :      12595. kBytes

     INWAV:  cpu time    0.0000: real time    0.0004
 Broyden mixing: mesh for mixing (old mesh)
   NGX = 25   NGY = 25   NGZ = 87
  (NGX  =108   NGY  =108   NGZ  =360)
  gives a total of  54375 points

 initial charge density was supplied:
 charge density of overlapping atoms calculated
 number of electron      62.0000000 magnetization       9.7800000
 keeping initial charge density in first step


--------------------------------------------------------------------------------------------------------


 Maximum index for non-local projection operator         7925
 Maximum index for augmentation-charges         1342 (set IRDMAX)


--------------------------------------------------------------------------------------------------------


 First call to EWALD:  gamma=   0.179
 Maximum number of real-space cells 4x 4x 1
 Maximum number of reciprocal cells 2x 2x 6

    FEWALD:  cpu time    0.0000: real time    0.0014


--------------------------------------- Iteration      1(   1)  ---------------------------------------


vdW kernel read from vdw_kernel.bindat
  0.0000  0.2424  0.5071  0.7962  1.1119  1.4567  1.8333  2.2446  2.6937  3.1842
  3.7199  4.3049  4.9438  5.6415  6.4036  7.2358  8.1446  9.1372 10.2212 11.4050
 12.6979 14.1099 15.6519 17.3360 19.1751 21.1837 23.3773 25.7729 28.3892 31.2465
 34.3669 37.7748 41.4965 45.5611 50.0000

    POTLOK:  cpu time   52.8920: real time   53.0625
    SETDIJ:  cpu time    0.0360: real time    0.0378
     EDDAV:  cpu time   22.3720: real time   22.6697
 BZINTS: Fermi energy:  4.719267; 62.000000 electrons
         Band energy: -35.229249;  BLOECHL correction: -0.029087
       DOS:  cpu time    0.0040: real time    0.0049
    --------------------------------------------
      LOOP:  cpu time   75.3040: real time   75.7749

 eigenvalue-minimisations  :   960
 total energy-change (2. order) : 0.4078689E+03  (-0.1880022E+04)
 number of electron      62.0000000 magnetization       9.7800000
 augmentation part       62.0000000 magnetization       9.7800000

 Free energy of the ion-electron system (eV)
  ---------------------------------------------------
  alpha Z        PSCENC =        23.47394930
  Ewald energy   TEWEN  =      7529.91642125
  -Hartree energ DENC   =    -10649.93875951
  -exchange      EXHF   =         0.00000000
  -V(xc)+E(xc)   XCENC  =        77.92184666
  PAW double counting   =      1928.29712870    -1974.02876732
  entropy T*S    EENTRO =         0.00000000
  eigenvalues    EBANDS =       -35.22924933
  atomic energy  EATOM  =      3507.45630297
  Solvation  Ediel_sol  =         0.00000000
  ---------------------------------------------------
  free energy    TOTEN  =       407.86887274 eV

  energy without entropy =      407.86887274  energy(sigma->0) =      407.86887274


--------------------------------------------------------------------------------------------------------




--------------------------------------- Iteration      1(   2)  ---------------------------------------


     EDDAV:  cpu time   29.3160: real time   29.6711
 BZINTS: Fermi energy: -1.606008; 62.000000 electrons
         Band energy:-411.436860;  BLOECHL correction: -0.029237
       DOS:  cpu time    0.0080: real time    0.0066
    --------------------------------------------
      LOOP:  cpu time   29.3240: real time   29.6778

 eigenvalue-minimisations  :  1296
 total energy-change (2. order) :-0.3762076E+03  (-0.3463043E+03)
 number of electron      62.0000000 magnetization       9.7800000
 augmentation part       62.0000000 magnetization       9.7800000

 Free energy of the ion-electron system (eV)
  ---------------------------------------------------
  alpha Z        PSCENC =        23.47394930
  Ewald energy   TEWEN  =      7529.91642125
  -Hartree energ DENC   =    -10649.93875951
  -exchange      EXHF   =         0.00000000
  -V(xc)+E(xc)   XCENC  =        77.92184666
  PAW double counting   =      1928.29712870    -1974.02876732
  entropy T*S    EENTRO =         0.00000000
  eigenvalues    EBANDS =      -411.43685961
  atomic energy  EATOM  =      3507.45630297
  Solvation  Ediel_sol  =         0.00000000
  ---------------------------------------------------
  free energy    TOTEN  =        31.66126245 eV

  energy without entropy =       31.66126245  energy(sigma->0) =       31.66126245


--------------------------------------------------------------------------------------------------------




--------------------------------------- Iteration      1(   3)  ---------------------------------------


     EDDAV:  cpu time   29.1960: real time   29.4269
 BZINTS: Fermi energy: -2.882576; 62.000000 electrons
         Band energy:-489.820493;  BLOECHL correction: -0.007346
       DOS:  cpu time    0.0040: real time    0.0050
    --------------------------------------------
      LOOP:  cpu time   29.2000: real time   29.4320

 eigenvalue-minimisations  :  1280
 total energy-change (2. order) :-0.7838363E+02  (-0.7500518E+02)
 number of electron      62.0000000 magnetization       9.7800000
 augmentation part       62.0000000 magnetization       9.7800000

 Free energy of the ion-electron system (eV)
  ---------------------------------------------------
  alpha Z        PSCENC =        23.47394930
  Ewald energy   TEWEN  =      7529.91642125
  -Hartree energ DENC   =    -10649.93875951
  -exchange      EXHF   =         0.00000000
  -V(xc)+E(xc)   XCENC  =        77.92184666
  PAW double counting   =      1928.29712870    -1974.02876732
  entropy T*S    EENTRO =         0.00000000
  eigenvalues    EBANDS =      -489.82049274
  atomic energy  EATOM  =      3507.45630297
  Solvation  Ediel_sol  =         0.00000000
  ---------------------------------------------------
  free energy    TOTEN  =       -46.72237068 eV

  energy without entropy =      -46.72237068  energy(sigma->0) =      -46.72237068


--------------------------------------------------------------------------------------------------------




--------------------------------------- Iteration      1(   4)  ---------------------------------------


     EDDAV:  cpu time   27.7480: real time   28.0224
 BZINTS: Fermi energy: -3.006353; 62.000000 electrons
         Band energy:-493.187412;  BLOECHL correction: -0.001322
       DOS:  cpu time    0.0040: real time    0.0050
    --------------------------------------------
      LOOP:  cpu time   27.7520: real time   28.0274

 eigenvalue-minimisations  :  1216
 total energy-change (2. order) :-0.3366919E+01  (-0.3340626E+01)
 number of electron      62.0000000 magnetization       9.7800000
 augmentation part       62.0000000 magnetization       9.7800000

 Free energy of the ion-electron system (eV)
  ---------------------------------------------------
  alpha Z        PSCENC =        23.47394930
  Ewald energy   TEWEN  =      7529.91642125
  -Hartree energ DENC   =    -10649.93875951
  -exchange      EXHF   =         0.00000000
  -V(xc)+E(xc)   XCENC  =        77.92184666
  PAW double counting   =      1928.29712870    -1974.02876732
  entropy T*S    EENTRO =         0.00000000
  eigenvalues    EBANDS =      -493.18741204
  atomic energy  EATOM  =      3507.45630297
  Solvation  Ediel_sol  =         0.00000000
  ---------------------------------------------------
  free energy    TOTEN  =       -50.08928998 eV

  energy without entropy =      -50.08928998  energy(sigma->0) =      -50.08928998


--------------------------------------------------------------------------------------------------------




--------------------------------------- Iteration      1(   5)  ---------------------------------------


     EDDAV:  cpu time   30.6160: real time   30.8241
 BZINTS: Fermi energy: -3.006866; 62.000000 electrons
         Band energy:-493.293504;  BLOECHL correction: -0.001296
       DOS:  cpu time    0.0040: real time    0.0057
    CHARGE:  cpu time    2.0200: real time    2.0221
    MIXING:  cpu time    0.0560: real time    0.0538
    --------------------------------------------
      LOOP:  cpu time   32.6960: real time   32.9057

 eigenvalue-minimisations  :  1360
 total energy-change (2. order) :-0.1060920E+00  (-0.1060883E+00)
 number of electron      61.9999991 magnetization       9.8035881
 augmentation part        0.8040560 magnetization       6.1472211

 Broyden mixing:
  rms(total) = 0.36143E+01    rms(broyden)= 0.36142E+01
  rms(prec ) = 0.38837E+01
  weight for this iteration     100.00

 Free energy of the ion-electron system (eV)
  ---------------------------------------------------
  alpha Z        PSCENC =        23.47394930
  Ewald energy   TEWEN  =      7529.91642125
  -Hartree energ DENC   =    -10649.93875951
  -exchange      EXHF   =         0.00000000
  -V(xc)+E(xc)   XCENC  =        77.92184666
  PAW double counting   =      1928.29712870    -1974.02876732
  entropy T*S    EENTRO =         0.00000000
  eigenvalues    EBANDS =      -493.29350407
  atomic energy  EATOM  =      3507.45630297
  Solvation  Ediel_sol  =         0.00000000
  ---------------------------------------------------
  free energy    TOTEN  =       -50.19538201 eV

  energy without entropy =      -50.19538201  energy(sigma->0) =      -50.19538201


--------------------------------------------------------------------------------------------------------




--------------------------------------- Iteration      1(   6)  ---------------------------------------


    POTLOK:  cpu time   51.6200: real time   52.3503
    SETDIJ:  cpu time    0.0400: real time    0.0408
     EDDAV:  cpu time   29.0400: real time   29.8780
 BZINTS: Fermi energy: -4.567755; 62.000000 electrons
         Band energy:-729.990596;  BLOECHL correction: -0.013369
       DOS:  cpu time    0.0040: real time    0.0061
    CHARGE:  cpu time    2.0720: real time    2.0756
    MIXING:  cpu time    0.0400: real time    0.0413
    --------------------------------------------
      LOOP:  cpu time   82.8160: real time   84.3920

 eigenvalue-minimisations  :  1312
 total energy-change (2. order) :-0.6265669E+02  (-0.7120145E+02)
 number of electron      61.9999984 magnetization       9.4343749
 augmentation part       10.8690838 magnetization       9.6222415

 Broyden mixing:
  rms(total) = 0.67505E+01    rms(broyden)= 0.67504E+01
  rms(prec ) = 0.70903E+01
  weight for this iteration     100.00

 eigenvalues of (default mixing * dielectric matrix)
  average eigenvalue GAMMA=   0.3263
  0.3263

 Free energy of the ion-electron system (eV)
  ---------------------------------------------------
  alpha Z        PSCENC =        23.47394930
  Ewald energy   TEWEN  =      7529.91642125
  -Hartree energ DENC   =    -10513.97271806
  -exchange      EXHF   =         0.00000000
  -V(xc)+E(xc)   XCENC  =        83.17429379
  PAW double counting   =      1678.62667672    -1691.53640535
  entropy T*S    EENTRO =         0.00000000
  eigenvalues    EBANDS =      -729.99059612
  atomic energy  EATOM  =      3507.45630297
  Solvation  Ediel_sol  =         0.00000000
  ---------------------------------------------------
  free energy    TOTEN  =      -112.85207548 eV

  energy without entropy =     -112.85207548  energy(sigma->0) =     -112.85207548


--------------------------------------------------------------------------------------------------------




--------------------------------------- Iteration      1(   7)  ---------------------------------------


    POTLOK:  cpu time   52.1280: real time   52.3862
    SETDIJ:  cpu time    0.0400: real time    0.0391
     EDDAV:  cpu time   26.0520: real time   26.3647
 BZINTS: Fermi energy: -4.879518; 62.000000 electrons
         Band energy:-560.034840;  BLOECHL correction: -0.027926
       DOS:  cpu time    0.0080: real time    0.0067
    CHARGE:  cpu time    2.0360: real time    2.0380
    MIXING:  cpu time    0.0400: real time    0.0424
    --------------------------------------------
      LOOP:  cpu time   80.3040: real time   80.8771

 eigenvalue-minimisations  :  1136
 total energy-change (2. order) : 0.6363317E+02  (-0.7854812E+01)
 number of electron      61.9999985 magnetization       9.1391395
 augmentation part        9.1885467 magnetization       8.6517643

 Broyden mixing:
  rms(total) = 0.37509E+01    rms(broyden)= 0.37509E+01
  rms(prec ) = 0.40051E+01
  weight for this iteration     100.00

 eigenvalues of (default mixing * dielectric matrix)
  average eigenvalue GAMMA=   0.4408
  0.4408  0.4408

 Free energy of the ion-electron system (eV)
  ---------------------------------------------------
  alpha Z        PSCENC =        23.47394930
  Ewald energy   TEWEN  =      7529.91642125
  -Hartree energ DENC   =    -10589.33462777
  -exchange      EXHF   =         0.00000000
  -V(xc)+E(xc)   XCENC  =        78.22343869
  PAW double counting   =      1822.98225211    -1861.90179781
  entropy T*S    EENTRO =         0.00000000
  eigenvalues    EBANDS =      -560.03484034
  atomic energy  EATOM  =      3507.45630297
  Solvation  Ediel_sol  =         0.00000000
  ---------------------------------------------------
  free energy    TOTEN  =       -49.21890159 eV

  energy without entropy =      -49.21890159  energy(sigma->0) =      -49.21890159


--------------------------------------------------------------------------------------------------------




--------------------------------------- Iteration      1(   8)  ---------------------------------------


    POTLOK:  cpu time   51.3080: real time   52.0593
    SETDIJ:  cpu time    0.0440: real time    0.0420
     EDDAV:  cpu time   29.6200: real time   30.0548
 BZINTS: Fermi energy: -4.153845; 62.000000 electrons
         Band energy:-508.153599;  BLOECHL correction:  0.000000
       DOS:  cpu time    0.0040: real time    0.0045
    CHARGE:  cpu time    2.0360: real time    2.0688
    MIXING:  cpu time    0.0400: real time    0.0415
    --------------------------------------------
      LOOP:  cpu time   83.0520: real time   84.2709

 eigenvalue-minimisations  :  1328
 total energy-change (2. order) : 0.1058804E+02  (-0.2153604E+01)
 number of electron      61.9999989 magnetization       9.0620306
 augmentation part        3.8790997 magnetization       5.8731988

 Broyden mixing:
  rms(total) = 0.12685E+01    rms(broyden)= 0.12683E+01
  rms(prec ) = 0.13250E+01
  weight for this iteration     100.00

 eigenvalues of (default mixing * dielectric matrix)
  average eigenvalue GAMMA=   0.4453
  0.5677  0.3841  0.3841

 Free energy of the ion-electron system (eV)
  ---------------------------------------------------
  alpha Z        PSCENC =        23.47394930
  Ewald energy   TEWEN  =      7529.91642125
  -Hartree energ DENC   =    -10623.85522703
  -exchange      EXHF   =         0.00000000
  -V(xc)+E(xc)   XCENC  =        78.25633607
  PAW double counting   =      1886.30008675    -1932.02512829
  entropy T*S    EENTRO =         0.00000000
  eigenvalues    EBANDS =      -508.15359950
  atomic energy  EATOM  =      3507.45630297
  Solvation  Ediel_sol  =         0.00000000
  ---------------------------------------------------
  free energy    TOTEN  =       -38.63085847 eV

  energy without entropy =      -38.63085847  energy(sigma->0) =      -38.63085847


--------------------------------------------------------------------------------------------------------




--------------------------------------- Iteration      1(   9)  ---------------------------------------


    POTLOK:  cpu time   51.0880: real time   51.3840
    SETDIJ:  cpu time    0.0360: real time    0.0382
     EDDAV:  cpu time   29.9840: real time   30.2569
 BZINTS: Fermi energy: -4.807830; 62.000000 electrons
         Band energy:-525.130640;  BLOECHL correction: -0.018105
       DOS:  cpu time    0.0040: real time    0.0067
    CHARGE:  cpu time    2.0800: real time    2.0797
    MIXING:  cpu time    0.0400: real time    0.0422
    --------------------------------------------
      LOOP:  cpu time   83.2320: real time   83.8079

 eigenvalue-minimisations  :  1344
 total energy-change (2. order) :-0.1167683E+01  (-0.9390582E+00)
 number of electron      61.9999987 magnetization       8.8562335
 augmentation part        7.0603565 magnetization       8.5606121

 Broyden mixing:
  rms(total) = 0.21181E+01    rms(broyden)= 0.21180E+01
  rms(prec ) = 0.22317E+01
  weight for this iteration     100.00

 eigenvalues of (default mixing * dielectric matrix)
  average eigenvalue GAMMA=   0.4314
  0.5989  0.4401  0.4401  0.2464

 Free energy of the ion-electron system (eV)
  ---------------------------------------------------
  alpha Z        PSCENC =        23.47394930
  Ewald energy   TEWEN  =      7529.91642125
  -Hartree energ DENC   =    -10609.82180157
  -exchange      EXHF   =         0.00000000
  -V(xc)+E(xc)   XCENC  =        78.42272898
  PAW double counting   =      1860.64759048    -1904.76309311
  entropy T*S    EENTRO =         0.00000000
  eigenvalues    EBANDS =      -525.13063967
  atomic energy  EATOM  =      3507.45630297
  Solvation  Ediel_sol  =         0.00000000
  ---------------------------------------------------
  free energy    TOTEN  =       -39.79854137 eV

  energy without entropy =      -39.79854137  energy(sigma->0) =      -39.79854137


--------------------------------------------------------------------------------------------------------




--------------------------------------- Iteration      1(  10)  ---------------------------------------


    POTLOK:  cpu time   51.1560: real time   51.2097
    SETDIJ:  cpu time    0.0360: real time    0.0375
     EDDAV:  cpu time   32.0120: real time   32.1874
 BZINTS: Fermi energy: -4.677532; 62.000000 electrons
         Band energy:-519.825014;  BLOECHL correction: -0.009502
       DOS:  cpu time    0.0040: real time    0.0076
    CHARGE:  cpu time    2.0560: real time    2.0811
    MIXING:  cpu time    0.0440: real time    0.0425
    --------------------------------------------
      LOOP:  cpu time   85.3080: real time   85.5657

 eigenvalue-minimisations  :  1440
 total energy-change (2. order) : 0.7194163E+00  (-0.7350022E-01)
 number of electron      61.9999986 magnetization       8.8555127
 augmentation part        6.0586238 magnetization       7.9709010

 Broyden mixing:
  rms(total) = 0.11610E+01    rms(broyden)= 0.11609E+01
  rms(prec ) = 0.12201E+01
  weight for this iteration     100.00

 eigenvalues of (default mixing * dielectric matrix)
  average eigenvalue GAMMA=   0.3710
  0.6280  0.4366  0.4366  0.2604  0.0935

 Free energy of the ion-electron system (eV)
  ---------------------------------------------------
  alpha Z        PSCENC =        23.47394930
  Ewald energy   TEWEN  =      7529.91642125
  -Hartree energ DENC   =    -10613.98192311
  -exchange      EXHF   =         0.00000000
  -V(xc)+E(xc)   XCENC  =        78.34066352
  PAW double counting   =      1868.71409699    -1913.17362181
  entropy T*S    EENTRO =         0.00000000
  eigenvalues    EBANDS =      -519.82501414
  atomic energy  EATOM  =      3507.45630297
  Solvation  Ediel_sol  =         0.00000000
  ---------------------------------------------------
  free energy    TOTEN  =       -39.07912504 eV

  energy without entropy =      -39.07912504  energy(sigma->0) =      -39.07912504


--------------------------------------------------------------------------------------------------------




--------------------------------------- Iteration      1(  11)  ---------------------------------------


    POTLOK:  cpu time   50.8240: real time   51.1308
    SETDIJ:  cpu time    0.0360: real time    0.0371
     EDDAV:  cpu time   29.6920: real time   29.8818
 BZINTS: Fermi energy: -4.667950; 62.000000 electrons
         Band energy:-519.860497;  BLOECHL correction: -0.009307
       DOS:  cpu time    0.0040: real time    0.0073
    CHARGE:  cpu time    2.0480: real time    2.0657
    MIXING:  cpu time    0.0440: real time    0.0430
    --------------------------------------------
      LOOP:  cpu time   82.6480: real time   83.1659

 eigenvalue-minimisations  :  1328
 total energy-change (2. order) :-0.1416099E-01  (-0.7017210E-02)
 number of electron      61.9999986 magnetization       8.7796467
 augmentation part        5.9839449 magnetization       7.7901760

 Broyden mixing:
  rms(total) = 0.11052E+01    rms(broyden)= 0.11052E+01
  rms(prec ) = 0.11602E+01
  weight for this iteration     100.00

 eigenvalues of (default mixing * dielectric matrix)
  average eigenvalue GAMMA=   0.3481
  0.6770  0.4619  0.4619  0.2150  0.2150  0.0579

 Free energy of the ion-electron system (eV)
  ---------------------------------------------------
  alpha Z        PSCENC =        23.47394930
  Ewald energy   TEWEN  =      7529.91642125
  -Hartree energ DENC   =    -10613.98680205
  -exchange      EXHF   =         0.00000000
  -V(xc)+E(xc)   XCENC  =        78.33845995
  PAW double counting   =      1868.71507333    -1913.14619368
  entropy T*S    EENTRO =         0.00000000
  eigenvalues    EBANDS =      -519.86049711
  atomic energy  EATOM  =      3507.45630297
  Solvation  Ediel_sol  =         0.00000000
  ---------------------------------------------------
  free energy    TOTEN  =       -39.09328603 eV

  energy without entropy =      -39.09328603  energy(sigma->0) =      -39.09328603


--------------------------------------------------------------------------------------------------------




--------------------------------------- Iteration      1(  12)  ---------------------------------------


    POTLOK:  cpu time   50.7280: real time   51.1681
    SETDIJ:  cpu time    0.0280: real time    0.0272
     EDDAV:  cpu time   34.1320: real time   34.3410
 BZINTS: Fermi energy: -4.781301; 62.000000 electrons
         Band energy:-526.814872;  BLOECHL correction: -0.009605
       DOS:  cpu time    0.0040: real time    0.0074
    CHARGE:  cpu time    2.0680: real time    2.0682
    MIXING:  cpu time    0.0440: real time    0.0442
    --------------------------------------------
      LOOP:  cpu time   87.0040: real time   87.6562

 eigenvalue-minimisations  :  1536
 total energy-change (2. order) :-0.4825464E+01  (-0.3381487E+01)
 number of electron      61.9999987 magnetization       8.7793805
 augmentation part        6.0006054 magnetization       9.4108950

 Broyden mixing:
  rms(total) = 0.20320E+01    rms(broyden)= 0.20194E+01
  rms(prec ) = 0.20848E+01
  weight for this iteration     100.00

 eigenvalues of (default mixing * dielectric matrix)
  average eigenvalue GAMMA=   0.2983
  0.6762  0.4616  0.4616  0.2134  0.2134  0.0571  0.0045

 Free energy of the ion-electron system (eV)
  ---------------------------------------------------
  alpha Z        PSCENC =        23.47394930
  Ewald energy   TEWEN  =      7529.91642125
  -Hartree energ DENC   =    -10612.23106779
  -exchange      EXHF   =         0.00000000
  -V(xc)+E(xc)   XCENC  =        78.33958850
  PAW double counting   =      1865.71643874    -1909.77551042
  entropy T*S    EENTRO =         0.00000000
  eigenvalues    EBANDS =      -526.81487220
  atomic energy  EATOM  =      3507.45630297
  Solvation  Ediel_sol  =         0.00000000
  ---------------------------------------------------
  free energy    TOTEN  =       -43.91874963 eV

  energy without entropy =      -43.91874963  energy(sigma->0) =      -43.91874963


--------------------------------------------------------------------------------------------------------




--------------------------------------- Iteration      1(  13)  ---------------------------------------


    POTLOK:  cpu time   51.0800: real time   51.1258
    SETDIJ:  cpu time    0.0360: real time    0.0373
     EDDAV:  cpu time   25.1240: real time   25.3505
 BZINTS: Fermi energy: -4.697354; 62.000000 electrons
         Band energy:-521.924216;  BLOECHL correction: -0.008861
       DOS:  cpu time    0.0040: real time    0.0069
    CHARGE:  cpu time    2.0680: real time    2.0951
    MIXING:  cpu time    0.0440: real time    0.0444
    --------------------------------------------
      LOOP:  cpu time   78.3560: real time   78.6600

 eigenvalue-minimisations  :  1104
 total energy-change (2. order) : 0.5251737E+01  (-0.1073591E+03)
 number of electron      61.9999987 magnetization       8.3568278
 augmentation part        6.3403346 magnetization       7.8716474

 Broyden mixing:
  rms(total) = 0.14467E+01    rms(broyden)= 0.14354E+01
  rms(prec ) = 0.15089E+01
  weight for this iteration     100.00

 eigenvalues of (default mixing * dielectric matrix)
  average eigenvalue GAMMA=   0.4270
  0.7857  0.7857  0.7304  0.3550  0.3550  0.3563  0.0454  0.0022

 Free energy of the ion-electron system (eV)
  ---------------------------------------------------
  alpha Z        PSCENC =        23.47394930
  Ewald energy   TEWEN  =      7529.91642125
  -Hartree energ DENC   =    -10612.18814873
  -exchange      EXHF   =         0.00000000
  -V(xc)+E(xc)   XCENC  =        78.66948252
  PAW double counting   =      1865.68429478    -1909.75509849
  entropy T*S    EENTRO =         0.00000000
  eigenvalues    EBANDS =      -521.92421593
  atomic energy  EATOM  =      3507.45630297
  Solvation  Ediel_sol  =         0.00000000
  ---------------------------------------------------
  free energy    TOTEN  =       -38.66701233 eV

  energy without entropy =      -38.66701233  energy(sigma->0) =      -38.66701233


--------------------------------------------------------------------------------------------------------




--------------------------------------- Iteration      1(  14)  ---------------------------------------


    POTLOK:  cpu time   50.8320: real time   51.0074
    SETDIJ:  cpu time    0.0360: real time    0.0380
     EDDAV:  cpu time   27.9000: real time   28.1728
 BZINTS: Fermi energy: -4.665652; 62.000000 electrons
         Band energy:-521.355155;  BLOECHL correction: -0.008760
       DOS:  cpu time    0.0040: real time    0.0076
    CHARGE:  cpu time    2.1000: real time    2.1040
    MIXING:  cpu time    0.0480: real time    0.0469
    --------------------------------------------
      LOOP:  cpu time   80.9200: real time   81.3768

 eigenvalue-minimisations  :  1248
 total energy-change (2. order) :-0.2114511E+00  (-0.1667316E+00)
 number of electron      61.9999986 magnetization       7.3059758
 augmentation part        5.8304038 magnetization       6.5442195

 Broyden mixing:
  rms(total) = 0.99004E+00    rms(broyden)= 0.98936E+00
  rms(prec ) = 0.10324E+01
  weight for this iteration     100.00

 eigenvalues of (default mixing * dielectric matrix)
  average eigenvalue GAMMA=   0.5793
  1.6938  1.0149  0.8121  0.4749  0.4749  0.3475  0.3475  0.0454  0.0022

 Free energy of the ion-electron system (eV)
  ---------------------------------------------------
  alpha Z        PSCENC =        23.47394930
  Ewald energy   TEWEN  =      7529.91642125
  -Hartree energ DENC   =    -10612.77954488
  -exchange      EXHF   =         0.00000000
  -V(xc)+E(xc)   XCENC  =        78.24465499
  PAW double counting   =      1866.00180972    -1909.83690137
  entropy T*S    EENTRO =         0.00000000
  eigenvalues    EBANDS =      -521.35515542
  atomic energy  EATOM  =      3507.45630297
  Solvation  Ediel_sol  =         0.00000000
  ---------------------------------------------------
  free energy    TOTEN  =       -38.87846343 eV

  energy without entropy =      -38.87846343  energy(sigma->0) =      -38.87846343


--------------------------------------------------------------------------------------------------------




--------------------------------------- Iteration      1(  15)  ---------------------------------------


    POTLOK:  cpu time   50.9960: real time   51.2811
    SETDIJ:  cpu time    0.0400: real time    0.0399
     EDDAV:  cpu time   32.4960: real time   32.8326
 BZINTS: Fermi energy: -4.644352; 62.000000 electrons
         Band energy:-523.154137;  BLOECHL correction: -0.008303
       DOS:  cpu time    0.0080: real time    0.0068
    CHARGE:  cpu time    2.0680: real time    2.0935
    MIXING:  cpu time    0.0480: real time    0.0480
    --------------------------------------------
      LOOP:  cpu time   85.6560: real time   86.3020

 eigenvalue-minimisations  :  1472
 total energy-change (2. order) :-0.1613848E-01  (-0.4064389E-01)
 number of electron      61.9999987 magnetization       6.5744729
 augmentation part        5.5627415 magnetization       6.0664837

 Broyden mixing:
  rms(total) = 0.80722E+00    rms(broyden)= 0.80718E+00
  rms(prec ) = 0.83340E+00
  weight for this iteration     100.00

 eigenvalues of (default mixing * dielectric matrix)
  average eigenvalue GAMMA=   0.6646
  1.7322  1.7322  0.6667  0.6667  0.5990  0.5104  0.3458  0.3458  0.0454  0.0022

 Free energy of the ion-electron system (eV)
  ---------------------------------------------------
  alpha Z        PSCENC =        23.47394930
  Ewald energy   TEWEN  =      7529.91642125
  -Hartree energ DENC   =    -10611.63389608
  -exchange      EXHF   =         0.00000000
  -V(xc)+E(xc)   XCENC  =        78.16282117
  PAW double counting   =      1864.30428912    -1907.42035285
  entropy T*S    EENTRO =         0.00000000
  eigenvalues    EBANDS =      -523.15413678
  atomic energy  EATOM  =      3507.45630297
  Solvation  Ediel_sol  =         0.00000000
  ---------------------------------------------------
  free energy    TOTEN  =       -38.89460191 eV

  energy without entropy =      -38.89460191  energy(sigma->0) =      -38.89460191


--------------------------------------------------------------------------------------------------------




--------------------------------------- Iteration      1(  16)  ---------------------------------------


    POTLOK:  cpu time   50.9200: real time   51.1063
    SETDIJ:  cpu time    0.0360: real time    0.0375
     EDDAV:  cpu time   28.8280: real time   29.1307
 BZINTS: Fermi energy: -4.559422; 62.000000 electrons
         Band energy:-520.221268;  BLOECHL correction: -0.006105
       DOS:  cpu time    0.0080: real time    0.0076
    CHARGE:  cpu time    2.0360: real time    2.0569
    MIXING:  cpu time    0.0480: real time    0.0475
    --------------------------------------------
      LOOP:  cpu time   81.8760: real time   82.3864

 eigenvalue-minimisations  :  1296
 total energy-change (2. order) : 0.8083653E-01  (-0.2301281E-01)
 number of electron      61.9999987 magnetization       5.8786053
 augmentation part        4.8691094 magnetization       4.7295931

 Broyden mixing:
  rms(total) = 0.40128E+00    rms(broyden)= 0.40126E+00
  rms(prec ) = 0.40854E+00
  weight for this iteration     100.00

 eigenvalues of (default mixing * dielectric matrix)
  average eigenvalue GAMMA=   0.7743
  2.1422  2.1422  0.9430  0.9430  0.5667  0.5667  0.3457  0.3457  0.4745  0.0454
  0.0022

 Free energy of the ion-electron system (eV)
  ---------------------------------------------------
  alpha Z        PSCENC =        23.47394930
  Ewald energy   TEWEN  =      7529.91642125
  -Hartree energ DENC   =    -10614.04653213
  -exchange      EXHF   =         0.00000000
  -V(xc)+E(xc)   XCENC  =        78.16773943
  PAW double counting   =      1870.77822829    -1914.33860678
  entropy T*S    EENTRO =         0.00000000
  eigenvalues    EBANDS =      -520.22126770
  atomic energy  EATOM  =      3507.45630297
  Solvation  Ediel_sol  =         0.00000000
  ---------------------------------------------------
  free energy    TOTEN  =       -38.81376537 eV

  energy without entropy =      -38.81376537  energy(sigma->0) =      -38.81376537


--------------------------------------------------------------------------------------------------------




--------------------------------------- Iteration      1(  17)  ---------------------------------------


    POTLOK:  cpu time   50.9040: real time   51.2469
    SETDIJ:  cpu time    0.0360: real time    0.0381
     EDDAV:  cpu time   25.9320: real time   26.1756
 BZINTS: Fermi energy: -4.341192; 62.000000 electrons
         Band energy:-515.794716;  BLOECHL correction: -0.013607
       DOS:  cpu time    0.0040: real time    0.0077
    CHARGE:  cpu time    2.0480: real time    2.0508
    MIXING:  cpu time    0.0480: real time    0.0482
    --------------------------------------------
      LOOP:  cpu time   78.9720: real time   79.5672

 eigenvalue-minimisations  :  1152
 total energy-change (2. order) :-0.2690115E+00  (-0.2746751E-01)
 number of electron      61.9999989 magnetization       5.8631548
 augmentation part        4.0178323 magnetization       3.6210020

 Broyden mixing:
  rms(total) = 0.92441E+00    rms(broyden)= 0.92438E+00
  rms(prec ) = 0.97731E+00
  weight for this iteration     100.00

 eigenvalues of (default mixing * dielectric matrix)
  average eigenvalue GAMMA=   0.8253
  2.0393  2.0393  2.0340  0.6492  0.6492  0.7256  0.3461  0.3461  0.5137  0.5137
  0.0454  0.0022

 Free energy of the ion-electron system (eV)
  ---------------------------------------------------
  alpha Z        PSCENC =        23.47394930
  Ewald energy   TEWEN  =      7529.91642125
  -Hartree energ DENC   =    -10617.71230091
  -exchange      EXHF   =         0.00000000
  -V(xc)+E(xc)   XCENC  =        78.05054822
  PAW double counting   =      1879.81656958    -1924.28955092
  entropy T*S    EENTRO =         0.00000000
  eigenvalues    EBANDS =      -515.79471640
  atomic energy  EATOM  =      3507.45630297
  Solvation  Ediel_sol  =         0.00000000
  ---------------------------------------------------
  free energy    TOTEN  =       -39.08277689 eV

  energy without entropy =      -39.08277689  energy(sigma->0) =      -39.08277689


--------------------------------------------------------------------------------------------------------




--------------------------------------- Iteration      1(  18)  ---------------------------------------


    POTLOK:  cpu time   50.9760: real time   51.1631
    SETDIJ:  cpu time    0.0360: real time    0.0390
     EDDAV:  cpu time   29.6960: real time   29.8569
 BZINTS: Fermi energy: -4.474167; 62.000000 electrons
         Band energy:-516.769097;  BLOECHL correction: -0.009097
       DOS:  cpu time    0.0080: real time    0.0082
    CHARGE:  cpu time    2.0640: real time    2.0673
    MIXING:  cpu time    0.0560: real time    0.0532
    --------------------------------------------
      LOOP:  cpu time   82.8360: real time   83.1877

 eigenvalue-minimisations  :  1328
 total energy-change (2. order) : 0.1500720E-01  (-0.5517467E-01)
 number of electron      61.9999988 magnetization       5.5714262
 augmentation part        4.5335553 magnetization       3.7485252

 Broyden mixing:
  rms(total) = 0.44638E+00    rms(broyden)= 0.44638E+00
  rms(prec ) = 0.47012E+00
  weight for this iteration     100.00

 eigenvalues of (default mixing * dielectric matrix)
  average eigenvalue GAMMA=   0.9116
  2.4440  2.4440  2.4294  0.7211  0.7211  0.6666  0.6666  0.3461  0.3461  0.5093
  0.5093  0.0454  0.0022

 Free energy of the ion-electron system (eV)
  ---------------------------------------------------
  alpha Z        PSCENC =        23.47394930
  Ewald energy   TEWEN  =      7529.91642125
  -Hartree energ DENC   =    -10616.58873146
  -exchange      EXHF   =         0.00000000
  -V(xc)+E(xc)   XCENC  =        78.08962494
  PAW double counting   =      1877.44199747    -1922.08823675
  entropy T*S    EENTRO =         0.00000000
  eigenvalues    EBANDS =      -516.76909742
  atomic energy  EATOM  =      3507.45630297
  Solvation  Ediel_sol  =         0.00000000
  ---------------------------------------------------
  free energy    TOTEN  =       -39.06776969 eV

  energy without entropy =      -39.06776969  energy(sigma->0) =      -39.06776969


--------------------------------------------------------------------------------------------------------




--------------------------------------- Iteration      1(  19)  ---------------------------------------


    POTLOK:  cpu time   51.1000: real time   51.2723
    SETDIJ:  cpu time    0.0360: real time    0.0367
     EDDAV:  cpu time   23.6160: real time   23.9612
 BZINTS: Fermi energy: -4.433107; 62.000000 electrons
         Band energy:-515.267361;  BLOECHL correction: -0.010848
       DOS:  cpu time    0.0080: real time    0.0072
    CHARGE:  cpu time    2.0200: real time    2.0835
    MIXING:  cpu time    0.0600: real time    0.0603
    --------------------------------------------
      LOOP:  cpu time   76.8400: real time   77.4212

 eigenvalue-minimisations  :  1040
 total energy-change (2. order) :-0.2295367E-01  (-0.1305638E+00)
 number of electron      61.9999988 magnetization       5.1996695
 augmentation part        4.4675589 magnetization       3.2642930

 Broyden mixing:
  rms(total) = 0.51792E+00    rms(broyden)= 0.51792E+00
  rms(prec ) = 0.54472E+00
  weight for this iteration     100.00

 eigenvalues of (default mixing * dielectric matrix)
  average eigenvalue GAMMA=   0.9787
  3.1410  2.3941  2.3941  1.0625  1.0625  0.6453  0.6453  0.3461  0.3461  0.5416
  0.5416  0.5338  0.0454  0.0022

 Free energy of the ion-electron system (eV)
  ---------------------------------------------------
  alpha Z        PSCENC =        23.47394930
  Ewald energy   TEWEN  =      7529.91642125
  -Hartree energ DENC   =    -10617.61608638
  -exchange      EXHF   =         0.00000000
  -V(xc)+E(xc)   XCENC  =        78.04066482
  PAW double counting   =      1879.12127009    -1924.21588394
  entropy T*S    EENTRO =         0.00000000
  eigenvalues    EBANDS =      -515.26736148
  atomic energy  EATOM  =      3507.45630297
  Solvation  Ediel_sol  =         0.00000000
  ---------------------------------------------------
  free energy    TOTEN  =       -39.09072337 eV

  energy without entropy =      -39.09072337  energy(sigma->0) =      -39.09072337


--------------------------------------------------------------------------------------------------------




--------------------------------------- Iteration      1(  20)  ---------------------------------------


    POTLOK:  cpu time   50.9520: real time   51.1582
    SETDIJ:  cpu time    0.0360: real time    0.0372
     EDDAV:  cpu time   29.6040: real time   29.8711
 BZINTS: Fermi energy: -4.416355; 62.000000 electrons
         Band energy:-514.628531;  BLOECHL correction: -0.010659
       DOS:  cpu time    0.0080: real time    0.0080
    CHARGE:  cpu time    2.0640: real time    2.0654
    MIXING:  cpu time    0.0520: real time    0.0527
    --------------------------------------------
      LOOP:  cpu time   82.7160: real time   83.1927

 eigenvalue-minimisations  :  1328
 total energy-change (2. order) :-0.2816481E-03  (-0.2876932E-02)
 number of electron      61.9999988 magnetization       4.9410799
 augmentation part        4.4459604 magnetization       3.0175530

 Broyden mixing:
  rms(total) = 0.55061E+00    rms(broyden)= 0.55061E+00
  rms(prec ) = 0.57796E+00
  weight for this iteration     100.00

 eigenvalues of (default mixing * dielectric matrix)
  average eigenvalue GAMMA=   1.0813
  5.1057  1.7769  1.7769  1.6107  1.6107  0.6868  0.6868  0.3461  0.3461  0.6120
  0.6120  0.5008  0.5008  0.0454  0.0022

 Free energy of the ion-electron system (eV)
  ---------------------------------------------------
  alpha Z        PSCENC =        23.47394930
  Ewald energy   TEWEN  =      7529.91642125
  -Hartree energ DENC   =    -10618.02370372
  -exchange      EXHF   =         0.00000000
  -V(xc)+E(xc)   XCENC  =        78.04610026
  PAW double counting   =      1879.21300799    -1924.54455165
  entropy T*S    EENTRO =         0.00000000
  eigenvalues    EBANDS =      -514.62853143
  atomic energy  EATOM  =      3507.45630297
  Solvation  Ediel_sol  =         0.00000000
  ---------------------------------------------------
  free energy    TOTEN  =       -39.09100501 eV

  energy without entropy =      -39.09100501  energy(sigma->0) =      -39.09100501


--------------------------------------------------------------------------------------------------------




--------------------------------------- Iteration      1(  21)  ---------------------------------------


    POTLOK:  cpu time   50.5520: real time   51.2359
    SETDIJ:  cpu time    0.0360: real time    0.0377
     EDDAV:  cpu time   26.0120: real time   26.4470
 BZINTS: Fermi energy: -4.407440; 62.000000 electrons
         Band energy:-514.403270;  BLOECHL correction: -0.010503
       DOS:  cpu time    0.0080: real time    0.0068
    CHARGE:  cpu time    2.0480: real time    2.0505
    MIXING:  cpu time    0.0520: real time    0.0533
    --------------------------------------------
      LOOP:  cpu time   78.7080: real time   79.8313

 eigenvalue-minimisations  :  1168
 total energy-change (2. order) : 0.5821033E-02  (-0.1009847E-02)
 number of electron      61.9999988 magnetization       4.8221256
 augmentation part        4.4217542 magnetization       2.9203663

 Broyden mixing:
  rms(total) = 0.58896E+00    rms(broyden)= 0.58896E+00
  rms(prec ) = 0.61737E+00
  weight for this iteration     100.00

 eigenvalues of (default mixing * dielectric matrix)
  average eigenvalue GAMMA=   1.0862
  5.5199  2.2752  1.7243  1.7243  1.2189  0.7434  0.7434  0.3461  0.3461  0.5993
  0.5993  0.4980  0.4964  0.4964  0.0454  0.0022

 Free energy of the ion-electron system (eV)
  ---------------------------------------------------
  alpha Z        PSCENC =        23.47394930
  Ewald energy   TEWEN  =      7529.91642125
  -Hartree energ DENC   =    -10618.21600761
  -exchange      EXHF   =         0.00000000
  -V(xc)+E(xc)   XCENC  =        78.03580068
  PAW double counting   =      1879.14244363    -1924.49082407
  entropy T*S    EENTRO =         0.00000000
  eigenvalues    EBANDS =      -514.40327014
  atomic energy  EATOM  =      3507.45630297
  Solvation  Ediel_sol  =         0.00000000
  ---------------------------------------------------
  free energy    TOTEN  =       -39.08518398 eV

  energy without entropy =      -39.08518398  energy(sigma->0) =      -39.08518398


--------------------------------------------------------------------------------------------------------




--------------------------------------- Iteration      1(  22)  ---------------------------------------


    POTLOK:  cpu time   51.0880: real time   51.1578
    SETDIJ:  cpu time    0.0360: real time    0.0370
     EDDAV:  cpu time   29.2280: real time   29.3895
 BZINTS: Fermi energy: -4.384272; 62.000000 electrons
         Band energy:-514.262593;  BLOECHL correction: -0.011516
       DOS:  cpu time    0.0080: real time    0.0074
    CHARGE:  cpu time    2.0480: real time    2.0505
    MIXING:  cpu time    0.0720: real time    0.0715
    --------------------------------------------
      LOOP:  cpu time   82.4800: real time   82.7138

 eigenvalue-minimisations  :  1312
 total energy-change (2. order) :-0.7393277E-01  (-0.4919365E-01)
 number of electron      61.9999988 magnetization       4.7961951
 augmentation part        4.3383406 magnetization       2.8545334

 Broyden mixing:
  rms(total) = 0.66003E+00    rms(broyden)= 0.66003E+00
  rms(prec ) = 0.69368E+00
  weight for this iteration     100.00

 eigenvalues of (default mixing * dielectric matrix)
  average eigenvalue GAMMA=   1.0649
  5.6300  2.3556  1.6493  1.6493  1.2286  0.7075  0.7075  0.6287  0.6287  0.3461
  0.3461  0.5898  0.5898  0.4989  0.4989  0.0454  0.0022

 Free energy of the ion-electron system (eV)
  ---------------------------------------------------
  alpha Z        PSCENC =        23.47394930
  Ewald energy   TEWEN  =      7529.91642125
  -Hartree energ DENC   =    -10618.44759072
  -exchange      EXHF   =         0.00000000
  -V(xc)+E(xc)   XCENC  =        78.02257965
  PAW double counting   =      1879.54059178    -1924.85877837
  entropy T*S    EENTRO =         0.00000000
  eigenvalues    EBANDS =      -514.26259262
  atomic energy  EATOM  =      3507.45630297
  Solvation  Ediel_sol  =         0.00000000
  ---------------------------------------------------
  free energy    TOTEN  =       -39.15911675 eV

  energy without entropy =      -39.15911675  energy(sigma->0) =      -39.15911675


--------------------------------------------------------------------------------------------------------




--------------------------------------- Iteration      1(  23)  ---------------------------------------


    POTLOK:  cpu time   51.0120: real time   51.1929
    SETDIJ:  cpu time    0.0360: real time    0.0383
     EDDAV:  cpu time   24.3520: real time   24.5803
 BZINTS: Fermi energy: -4.381310; 62.000000 electrons
         Band energy:-514.317632;  BLOECHL correction: -0.011755
       DOS:  cpu time    0.0040: real time    0.0078
    CHARGE:  cpu time    2.0560: real time    2.0883
    MIXING:  cpu time    0.0600: real time    0.0604
    --------------------------------------------
      LOOP:  cpu time   77.5200: real time   77.9680

 eigenvalue-minimisations  :  1072
 total energy-change (2. order) : 0.5985098E-01  (-0.3380543E+00)
 number of electron      61.9999988 magnetization       4.6716359
 augmentation part        4.3263110 magnetization       2.7099851

 Broyden mixing:
  rms(total) = 0.67081E+00    rms(broyden)= 0.67081E+00
  rms(prec ) = 0.70500E+00
  weight for this iteration     100.00

 eigenvalues of (default mixing * dielectric matrix)
  average eigenvalue GAMMA=   1.2008
  6.6580  2.7272  1.9451  1.9451  1.4943  1.1005  1.1005  0.6543  0.6543  0.3461
  0.3461  0.6241  0.6241  0.5228  0.5228  0.0454  0.3013  0.0022

 Free energy of the ion-electron system (eV)
  ---------------------------------------------------
  alpha Z        PSCENC =        23.47394930
  Ewald energy   TEWEN  =      7529.91642125
  -Hartree energ DENC   =    -10618.33346275
  -exchange      EXHF   =         0.00000000
  -V(xc)+E(xc)   XCENC  =        78.01372761
  PAW double counting   =      1879.52229323    -1924.83086531
  entropy T*S    EENTRO =         0.00000000
  eigenvalues    EBANDS =      -514.31763208
  atomic energy  EATOM  =      3507.45630297
  Solvation  Ediel_sol  =         0.00000000
  ---------------------------------------------------
  free energy    TOTEN  =       -39.09926577 eV

  energy without entropy =      -39.09926577  energy(sigma->0) =      -39.09926577


--------------------------------------------------------------------------------------------------------




--------------------------------------- Iteration      1(  24)  ---------------------------------------


    POTLOK:  cpu time   50.8520: real time   51.1246
    SETDIJ:  cpu time    0.0360: real time    0.0363
     EDDAV:  cpu time   26.2200: real time   26.5319
 BZINTS: Fermi energy: -4.355504; 62.000000 electrons
         Band energy:-514.438178;  BLOECHL correction: -0.013193
       DOS:  cpu time    0.0080: real time    0.0072
    CHARGE:  cpu time    2.1000: real time    2.1115
    MIXING:  cpu time    0.0640: real time    0.0646
    --------------------------------------------
      LOOP:  cpu time   79.2800: real time   79.8761

 eigenvalue-minimisations  :  1168
 total energy-change (2. order) :-0.2044248E-01  (-0.8051629E-02)
 number of electron      61.9999988 magnetization       4.5755702
 augmentation part        4.2172411 magnetization       2.5323077

 Broyden mixing:
  rms(total) = 0.76585E+00    rms(broyden)= 0.76585E+00
  rms(prec ) = 0.80643E+00
  weight for this iteration     100.00

 eigenvalues of (default mixing * dielectric matrix)
  average eigenvalue GAMMA=   1.2481
  7.4753  2.6435  2.1296  2.1296  2.0284  1.0725  1.0725  0.0454  0.6600  0.6600
  0.3461  0.3461  0.6167  0.6167  0.5108  0.5108  0.4239  0.4239  0.0022

 Free energy of the ion-electron system (eV)
  ---------------------------------------------------
[...]
     34      -1.2771      0.00000
     35      -1.1044      0.00000
     36       0.6915      0.00000
     37       0.8656      0.00000
     38       1.8420      0.00000
     39       1.8812      0.00000
     40       2.4683      0.00000
     41       2.6270      0.00000
     42       2.9181      0.00000
     43       2.9587      0.00000
     44       3.1412      0.00000
     45       3.6988      0.00000
     46       4.0634      0.00000
     47       4.1053      0.00000
     48       4.4432      0.00000

 k-point     5 :      -0.4000    0.2000    0.0000
  band No.  band energies     occupation 
      1     -16.4381      1.00000
      2     -16.1841      1.00000
      3     -15.6790      1.00000
      4     -15.5937      1.00000
      5     -15.3663      1.00000
      6     -15.1584      1.00000
      7     -10.5096      1.00000
      8      -9.2813      1.00000
      9      -8.1171      1.00000
     10      -7.5768      1.00000
     11      -7.5367      1.00000
     12      -7.0193      1.00000
     13      -6.7428      1.00000
     14      -6.5093      1.00000
     15      -6.2355      1.00000
     16      -5.8862      1.00000
     17      -5.7531      1.00000
     18      -5.7239      1.00000
     19      -5.5063      1.00000
     20      -5.1939      1.00000
     21      -5.1368      1.00000
     22      -4.3384      1.00000
     23      -4.2633      1.00000
     24      -4.0386      1.00000
     25      -3.9462      1.00000
     26      -3.4202      1.00000
     27      -3.3336      1.00000
     28      -3.1680      1.00000
     29      -3.1372      1.00000
     30      -2.9993      1.00000
     31      -2.8857      1.00000
     32      -1.6511      0.00000
     33      -1.5631      0.00000
     34      -1.2620      0.00000
     35      -0.9719      0.00000
     36       0.2202      0.00000
     37       0.8362      0.00000
     38       1.3865      0.00000
     39       1.6492      0.00000
     40       2.1963      0.00000
     41       2.3587      0.00000
     42       2.6897      0.00000
     43       3.4255      0.00000
     44       3.5284      0.00000
     45       3.5663      0.00000
     46       3.7091      0.00000
     47       4.1410      0.00000
     48       4.5905      0.00000


--------------------------------------------------------------------------------------------------------


 soft charge-density along one line, spin component           1
         0         1         2         3         4         5         6         7         8         9
 total charge-density along one line

 soft charge-density along one line, spin component           2
         0         1         2         3         4         5         6         7         8         9
 total charge-density along one line

 pseudopotential strength for first ion, spin component:           1
-10.157  -0.102  -0.000   0.000   0.000   0.921   0.036   0.000
 -0.102 -10.303   0.000   0.000   0.000   0.036   0.972  -0.000
 -0.000   0.000 -10.143   0.000   0.000   0.000  -0.000   0.916
  0.000   0.000   0.000 -10.303   0.102  -0.000  -0.000  -0.000
  0.000   0.000   0.000   0.102 -10.157  -0.000  -0.000  -0.000
  0.921   0.036   0.000  -0.000  -0.000   0.696  -0.014  -0.000
  0.036   0.972  -0.000  -0.000  -0.000  -0.014   0.677   0.000
  0.000  -0.000   0.916  -0.000  -0.000  -0.000   0.000   0.699
 -0.000  -0.000  -0.000   0.972  -0.036   0.000   0.000   0.000
 -0.000  -0.000  -0.000  -0.036   0.921   0.000   0.000   0.000
 -0.000  -0.000   0.009  -0.000   0.000  -0.000  -0.000  -0.003
  0.000   0.000  -0.001   0.000  -0.000  -0.000  -0.000   0.000
 -0.000  -0.000   0.000  -0.000   0.001  -0.000   0.000  -0.000
 -0.000  -0.000  -0.000  -0.000  -0.000  -0.000   0.000   0.000
  0.001  -0.000   0.000  -0.000  -0.000   0.000  -0.000  -0.000
  0.000   0.000  -0.000   0.000  -0.001   0.000  -0.000   0.000
  0.000   0.000  -0.000   0.000   0.000  -0.000  -0.000  -0.000
 -0.001   0.000  -0.000   0.000   0.000   0.000  -0.000   0.000
 pseudopotential strength for first ion, spin component:           2
-10.157  -0.102  -0.000   0.000   0.000   0.921   0.036   0.000
 -0.102 -10.303   0.000   0.000   0.000   0.036   0.972  -0.000
 -0.000   0.000 -10.143   0.000   0.000   0.000  -0.000   0.916
  0.000   0.000   0.000 -10.303   0.102  -0.000  -0.000  -0.000
  0.000   0.000   0.000   0.102 -10.157  -0.000  -0.000  -0.000
  0.921   0.036   0.000  -0.000  -0.000   0.696  -0.014  -0.000
  0.036   0.972  -0.000  -0.000  -0.000  -0.014   0.677   0.000
  0.000  -0.000   0.916  -0.000  -0.000  -0.000   0.000   0.699
 -0.000  -0.000  -0.000   0.972  -0.036   0.000   0.000   0.000
 -0.000  -0.000  -0.000  -0.036   0.921   0.000   0.000   0.000
 -0.000  -0.000   0.009  -0.000   0.000  -0.000  -0.000  -0.003
  0.000   0.000  -0.001   0.000  -0.000  -0.000  -0.000   0.000
 -0.000  -0.000   0.000  -0.000   0.001  -0.000   0.000  -0.000
 -0.000  -0.000  -0.000  -0.000  -0.000  -0.000   0.000   0.000
  0.001  -0.000   0.000  -0.000  -0.000   0.000  -0.000  -0.000
  0.000   0.000  -0.000   0.000  -0.001   0.000  -0.000   0.000
  0.000   0.000  -0.000   0.000   0.000  -0.000  -0.000  -0.000
 -0.001   0.000  -0.000   0.000   0.000   0.000  -0.000   0.000
 total augmentation occupancy for first ion, spin component:           1
  1.696  -0.327   0.000   0.000  -0.000   0.084   0.200   0.000  -0.000   0.000  -0.000  -0.000   0.000   0.000   0.007   0.000
 -0.327   1.390  -0.000  -0.000   0.000   0.193   0.276   0.000   0.000  -0.000  -0.000  -0.000  -0.000  -0.000   0.005   0.000
  0.000  -0.000   1.932  -0.000  -0.000   0.000   0.000  -0.074   0.000  -0.000  -0.019  -0.008  -0.000   0.000   0.000   0.000
  0.000  -0.000  -0.000   1.390   0.327  -0.000  -0.000   0.000   0.276  -0.193   0.000   0.000  -0.005  -0.000  -0.000   0.000
 -0.000   0.000  -0.000   0.327   1.696  -0.000  -0.000  -0.000  -0.200   0.084   0.000   0.000   0.007  -0.000  -0.000  -0.001
  0.084   0.193   0.000  -0.000  -0.000   0.121   0.061   0.000  -0.000  -0.000   0.000  -0.000  -0.000   0.000   0.020   0.000
  0.200   0.276   0.000  -0.000  -0.000   0.061   0.191   0.000  -0.000  -0.000   0.000   0.000   0.000   0.000  -0.004  -0.000
  0.000   0.000  -0.074   0.000  -0.000   0.000   0.000   0.115   0.000  -0.000   0.045  -0.019  -0.000   0.000   0.000   0.000
 -0.000   0.000   0.000   0.276  -0.200  -0.000  -0.000   0.000   0.191  -0.061  -0.000  -0.000   0.004  -0.000   0.000  -0.000
  0.000  -0.000  -0.000  -0.193   0.084  -0.000  -0.000  -0.000  -0.061   0.121  -0.000   0.000   0.020  -0.000   0.000  -0.004
 -0.000  -0.000  -0.019   0.000   0.000   0.000   0.000   0.045  -0.000  -0.000   1.080  -0.346  -0.000   0.000   0.000   0.000
 -0.000   0.000  -0.008   0.000   0.000  -0.000   0.000  -0.019   0.000   0.000  -0.346   0.191   0.000  -0.000  -0.000   0.000
  0.000  -0.000  -0.000  -0.005   0.007  -0.000   0.000  -0.000   0.004   0.020  -0.000   0.000   0.220   0.000  -0.000  -0.018
  0.000  -0.000   0.000   0.000  -0.000   0.000   0.000   0.000  -0.000  -0.000   0.000  -0.000  -0.000   0.232  -0.000   0.000
  0.007   0.005   0.000  -0.000  -0.000   0.020  -0.004   0.000   0.000   0.000   0.000   0.000  -0.000  -0.000   0.220   0.000
  0.000   0.000   0.000   0.000  -0.001   0.000  -0.000   0.000  -0.000  -0.004   0.000   0.000  -0.018   0.000   0.000   0.002
  0.000   0.000   0.000   0.000  -0.000  -0.000   0.000  -0.000   0.000   0.000  -0.000   0.000   0.000  -0.021   0.000  -0.000
 -0.001  -0.000  -0.000   0.000  -0.000  -0.004   0.000  -0.000  -0.000  -0.000   0.000  -0.000  -0.000   0.000  -0.018  -0.000
 total augmentation occupancy for first ion, spin component:           2
 -0.000  -0.000  -0.000   0.000  -0.000   0.000  -0.000   0.000   0.000   0.000   0.000   0.000  -0.000   0.000   0.000  -0.000
 -0.000  -0.000  -0.000   0.000   0.000  -0.000  -0.000  -0.000   0.000   0.000   0.000   0.000   0.000   0.000  -0.000   0.000
 -0.000  -0.000  -0.000  -0.000   0.000   0.000  -0.000   0.000  -0.000  -0.000   0.000   0.000  -0.000   0.000   0.000  -0.000
  0.000   0.000  -0.000  -0.000   0.000   0.000  -0.000  -0.000  -0.000   0.000  -0.000   0.000   0.000  -0.000   0.000  -0.000
  0.000   0.000   0.000   0.000  -0.000  -0.000   0.000  -0.000   0.000   0.000  -0.000  -0.000   0.000  -0.000   0.000  -0.000
  0.000  -0.000   0.000   0.000  -0.000  -0.000   0.000  -0.000   0.000   0.000   0.000  -0.000   0.000  -0.000  -0.000   0.000
 -0.000  -0.000  -0.000  -0.000   0.000   0.000  -0.000  -0.000   0.000   0.000   0.000   0.000  -0.000   0.000  -0.000   0.000
  0.000  -0.000   0.000  -0.000  -0.000  -0.000  -0.000  -0.000   0.000   0.000   0.000  -0.000   0.000  -0.000  -0.000   0.000
  0.000   0.000  -0.000  -0.000   0.000   0.000   0.000   0.000  -0.000  -0.000  -0.000   0.000   0.000  -0.000  -0.000  -0.000
  0.000   0.000  -0.000   0.000   0.000  -0.000   0.000   0.000  -0.000  -0.000  -0.000   0.000  -0.000   0.000  -0.000   0.000
  0.000   0.000   0.000  -0.000  -0.000   0.000   0.000   0.000  -0.000  -0.000  -0.000  -0.000   0.000  -0.000   0.000   0.000
  0.000   0.000   0.000   0.000  -0.000  -0.000   0.000  -0.000   0.000   0.000  -0.000   0.000  -0.000  -0.000  -0.000   0.000
 -0.000   0.000  -0.000   0.000   0.000   0.000  -0.000   0.000   0.000  -0.000   0.000  -0.000  -0.000   0.000   0.000  -0.000
  0.000   0.000   0.000  -0.000  -0.000  -0.000   0.000  -0.000  -0.000   0.000  -0.000  -0.000   0.000  -0.000  -0.000   0.000
  0.000  -0.000   0.000   0.000   0.000  -0.000  -0.000  -0.000  -0.000  -0.000   0.000  -0.000   0.000  -0.000  -0.000  -0.000
 -0.000   0.000  -0.000  -0.000  -0.000   0.000   0.000   0.000  -0.000   0.000  -0.000   0.000  -0.000  -0.000  -0.000   0.000
  0.000  -0.000   0.000  -0.000  -0.000  -0.000   0.000  -0.000  -0.000   0.000  -0.000   0.000   0.000  -0.000   0.000   0.000
 -0.000   0.000  -0.000   0.000   0.000   0.000   0.000   0.000   0.000  -0.000  -0.000   0.000   0.000   0.000  -0.000  -0.000


------------------------ aborting loop because EDIFF is reached ----------------------------------------





 total charge     

# of ion       s       p       d       tot
------------------------------------------
    1        0.391   0.514   7.372   8.277
    2        0.391   0.514   7.372   8.277
    3        0.745   0.911   0.000   1.656
    4        0.745   0.911   0.000   1.656
    5        1.365   2.320   0.000   3.686
    6        1.359   2.361   0.000   3.721
    7        1.364   2.329   0.000   3.693
    8        1.365   2.320   0.000   3.686
    9        1.359   2.361   0.000   3.721
   10        1.364   2.329   0.000   3.693
--------------------------------------------------
tot         10.449  16.870  14.744  42.063



 magnetization (x)

# of ion       s       p       d       tot
------------------------------------------
    1        0.000   0.000   0.000   0.000
    2        0.000   0.000   0.000   0.000
    3       -0.000  -0.000   0.000  -0.000
    4       -0.000  -0.000   0.000  -0.000
    5        0.000  -0.000   0.000  -0.000
    6        0.000  -0.000   0.000  -0.000
    7        0.000  -0.000   0.000  -0.000
    8        0.000  -0.000   0.000  -0.000
    9        0.000  -0.000   0.000  -0.000
   10        0.000  -0.000   0.000  -0.000
--------------------------------------------------
tot          0.000  -0.000   0.000   0.000

    CHARGE:  cpu time    2.0240: real time    2.0452
    FORLOC:  cpu time    0.0560: real time    0.0585
    FORNL :  cpu time    6.8360: real time    6.9257
    STRESS:  cpu time   20.2960: real time   20.7097
    FORCOR:  cpu time   52.4520: real time   52.8134
    FORHAR:  cpu time    0.3560: real time    0.3576
    MIXING:  cpu time    0.0600: real time    0.0581
    OFIELD:  cpu time    0.0000: real time    0.0000

  FORCE on cell =-STRESS in cart. coord.  units (eV):
  Direction    XX          YY          ZZ          XY          YZ          ZX
  --------------------------------------------------------------------------------------
  Alpha Z    38.20931    38.20931    38.20931
  Ewald   12185.23937 12185.23683-14339.33495    -0.00222    -0.00059    -0.00105
  Hartree 12768.61697 12768.61785-12337.43411    -0.00043     0.00005     0.00008
  E(xc)    -249.66388  -249.66387  -249.27506     0.00001     0.00000     0.00001
  Local  -25861.71546-25861.71522 25734.42270     0.00218     0.00035     0.00063
  n-local   449.38980   449.57869   452.82022     0.04061     0.96848     0.84844
  augment   -18.76423   -18.76408   -23.41113     0.00005     0.00005     0.00005
  Kinetic   690.92927   686.13521   723.97608    -3.17656     1.39017     1.49536
  Fock        0.00000     0.00000     0.00000     0.00000     0.00000     0.00000
  -------------------------------------------------------------------------------------
  Total      -0.06207    -0.06207    -0.02694     0.00000     0.00000     0.00000
  in kB      -0.16708    -0.16708    -0.07251     0.00000     0.00000     0.00000
  external pressure =       -0.14 kB  Pullay stress =        0.00 kB


 VOLUME and BASIS-vectors are now :
 -----------------------------------------------------------------------------
  energy-cutoff  :      520.00
  volume of cell :      595.21
      direct lattice vectors                 reciprocal lattice vectors
     5.768470015  0.000001211 -0.000000000     0.173356214 -0.100087203 -0.000000000
     2.884233710  4.995641997 -0.000000000    -0.000000042  0.200174496  0.000000000
     0.000000000 -0.000000000 20.654509147     0.000000000  0.000000000  0.048415578

  length of vectors
     5.768470015  5.768469733 20.654509147     0.200174487  0.200174496  0.048415578


 FORCES acting on ions
    electron-ion (+dipol)            ewald-force                    non-local-force                 convergence-correction
 -----------------------------------------------------------------------------------------------
   -.166E-03 -.113E-03 0.813E+00   0.792E-03 0.470E-03 -.824E+00   -.208E-16 -.640E-21 0.155E-01   0.211E-06 0.109E-06 -.231E-03
   0.166E-03 0.113E-03 -.813E+00   -.792E-03 -.470E-03 0.824E+00   0.139E-16 0.640E-21 -.155E-01   -.211E-06 -.109E-06 0.231E-03
   -.317E-04 -.214E-04 0.282E+03   -.219E-03 -.123E-03 -.273E+03   0.167E-16 0.420E-16 -.923E+01   -.174E-06 -.109E-06 0.177E-02
   0.317E-04 0.214E-04 -.282E+03   0.219E-03 0.123E-03 0.273E+03   -.981E-17 -.420E-16 0.923E+01   0.174E-06 0.109E-06 -.177E-02
   -.297E+02 0.473E-01 -.579E+03   0.259E+02 -.430E-01 0.584E+03   0.373E+01 -.936E-02 -.481E+01   -.424E-02 0.216E-04 -.821E-02
   0.149E+02 0.257E+02 -.579E+03   -.130E+02 -.224E+02 0.584E+03   -.187E+01 -.323E+01 -.481E+01   0.214E-02 0.366E-02 -.821E-02
   0.148E+02 -.257E+02 -.579E+03   -.129E+02 0.225E+02 0.584E+03   -.186E+01 0.324E+01 -.481E+01   0.210E-02 -.368E-02 -.821E-02
   0.297E+02 -.473E-01 0.579E+03   -.259E+02 0.430E-01 -.584E+03   -.373E+01 0.936E-02 0.481E+01   0.424E-02 -.216E-04 0.821E-02
   -.149E+02 -.257E+02 0.579E+03   0.130E+02 0.224E+02 -.584E+03   0.187E+01 0.323E+01 0.481E+01   -.214E-02 -.366E-02 0.821E-02
   -.148E+02 0.257E+02 0.579E+03   0.129E+02 -.225E+02 -.584E+03   0.186E+01 -.324E+01 0.481E+01   -.210E-02 0.368E-02 0.821E-02
 -----------------------------------------------------------------------------------------------
   -.216E-09 -.124E-09 -.323E-09   -.355E-14 0.142E-13 -.114E-12   0.000E+00 -.444E-15 -.266E-14   -.183E-13 0.642E-12 0.308E-10


 POSITION                                       TOTAL-FORCE (eV/Angst)
 -----------------------------------------------------------------------------------
      2.88423      1.66521     10.32622         0.000000     -0.000000      0.004190
      5.76847      3.33043     10.32829         0.000000     -0.000000     -0.004190
      0.00000     -0.00000      9.21901         0.000000     -0.000000      0.005937
      0.00000     -0.00000     11.43550         0.000000     -0.000000     -0.005937
      3.61953      0.00095     11.76389        -0.008746     -0.004303      0.001045
      1.07529      1.86057     11.76389         0.000647      0.009726      0.001045
      3.95789      3.13413     11.76389         0.008100     -0.005423      0.001045
      5.03317      4.99469      8.89061         0.008746      0.004303     -0.001045
      7.57741      3.13507      8.89061        -0.000647     -0.009726     -0.001045
      4.69481      1.86151      8.89061        -0.008100      0.005423     -0.001045
 -----------------------------------------------------------------------------------
    total drift:                               -0.000000     -0.000000     -0.000000


--------------------------------------------------------------------------------------------------------



  FREE ENERGIE OF THE ION-ELECTRON SYSTEM (eV)
  ---------------------------------------------------
  free  energy   TOTEN  =       -49.30987832 eV

  energy  without entropy=      -49.30987832  energy(sigma->0) =      -49.30987832

 d Force = 0.1007564E-01[-0.783E-04, 0.202E-01]  d Energy = 0.1071807E-01-0.642E-03
 d Force = 0.5414191E+01[ 0.547E+01, 0.536E+01]  d Ewald  =-0.1640168E+02 0.218E+02


--------------------------------------------------------------------------------------------------------


    POTLOK:  cpu time   53.1400: real time   53.2605


--------------------------------------------------------------------------------------------------------




--------------------------------------------------------------------------------------------------------


  
 reached required accuracy - stopping structural energy minimisation
     LOOP+:  cpu time  537.6600: real time  541.1945
    4ORBIT:  cpu time    0.0000: real time    0.0000



 total charge     

# of ion       s       p       d       tot
------------------------------------------
    1        0.391   0.514   7.372   8.277
    2        0.391   0.514   7.372   8.277
    3        0.745   0.911   0.000   1.656
    4        0.745   0.911   0.000   1.656
    5        1.365   2.320   0.000   3.686
    6        1.359   2.361   0.000   3.721
    7        1.364   2.329   0.000   3.693
    8        1.365   2.320   0.000   3.686
    9        1.359   2.361   0.000   3.721
   10        1.364   2.329   0.000   3.693
--------------------------------------------------
tot         10.449  16.870  14.744  42.063



 magnetization (x)

# of ion       s       p       d       tot
------------------------------------------
    1        0.000   0.000   0.000   0.000
    2        0.000   0.000   0.000   0.000
    3       -0.000  -0.000   0.000  -0.000
    4       -0.000  -0.000   0.000  -0.000
    5        0.000  -0.000   0.000  -0.000
    6        0.000  -0.000   0.000  -0.000
    7        0.000  -0.000   0.000  -0.000
    8        0.000  -0.000   0.000  -0.000
    9        0.000  -0.000   0.000  -0.000
   10        0.000  -0.000   0.000  -0.000
--------------------------------------------------
tot          0.000  -0.000   0.000   0.000

 BZINTS: Fermi energy: -2.684568; 62.000000 electrons
         Band energy:-465.854683;  BLOECHL correction:  0.000000

 total amount of memory used by VASP MPI-rank0   130995. kBytes
=======================================================================

   base      :      30000. kBytes
   nonlr-proj:      10700. kBytes
   fftplans  :      11247. kBytes
   grid      :      66142. kBytes
   one-center:        311. kBytes
   wavefun   :      12595. kBytes

  
  
 General timing and accounting informations for this job:
 ========================================================
  
                  Total CPU time used (sec):    22523.729
                            User time (sec):    22066.564
                          System time (sec):      457.164
                         Elapsed time (sec):    22686.698
  
                   Maximum memory used (kb):      391272.
                   Average memory used (kb):           0.
  
                          Minor page faults:     15734454
                          Major page faults:            7
                 Voluntary context switches:         1142
