 vasp.5.4.4.18Apr17-6-g9f103f2a35 (build May  1 2020 15:48:39) complex           
 executed on             LinuxGNU date 2020.07.02  15:13:57
 running on    8 total cores
 distrk:  each k-point on    8 cores,    1 groups
 distr:  one band on NCORES_PER_BAND=   1 cores,    8 groups


--------------------------------------------------------------------------------------------------------


 INCAR:
 POTCAR:   PAW_PBE Cr 06Sep2000                   
 POTCAR:   PAW_PBE Ge 05Jan2001                   
 POTCAR:    PAW_PBE P 17Jan2003                   
 POTCAR:    PAW_PBE S 17Jan2003                   

 ----------------------------------------------------------------------------- 
|                                                                             |
|           W    W    AA    RRRRR   N    N  II  N    N   GGGG   !!!           |
|           W    W   A  A   R    R  NN   N  II  NN   N  G    G  !!!           |
|           W    W  A    A  R    R  N N  N  II  N N  N  G       !!!           |
|           W WW W  AAAAAA  RRRRR   N  N N  II  N  N N  G  GGG   !            |
|           WW  WW  A    A  R   R   N   NN  II  N   NN  G    G                |
|           W    W  A    A  R    R  N    N  II  N    N   GGGG   !!!           |
|                                                                             |
|      For optimal performance we recommend to set                            |
|        NCORE= 4 - approx SQRT( number of cores)                             |
|      NCORE specifies how many cores store one orbital (NPAR=cpu/NCORE).     |
|      This setting can  greatly improve the performance of VASP for DFT.     |
|      The default,   NCORE=1            might be grossly inefficient         |
|      on modern multi-core architectures or massively parallel machines.     |
|      Do your own testing !!!!                                               |
|      Unfortunately you need to use the default for GW and RPA calculations. |
|      (for HF NCORE is supported but not extensively tested yet)             |
|                                                                             |
 ----------------------------------------------------------------------------- 


 ----------------------------------------------------------------------------- 
|                                                                             |
|  ADVICE TO THIS USER RUNNING 'VASP/VAMP'   (HEAR YOUR MASTER'S VOICE ...):  |
|                                                                             |
|      You have switched on vdW-DFT.                                          |
|      This routine was written and supplied by Jiri Klimes.                  |
|      We recommed that you carefully read and cite the following             |
|      publication                                                            |
|      J. Klimes, D.R. Bowler, A. Michelides                                  |
|        J. Phys.: Cond Matt. 22 022201 (2010)                                |
|      J. Klimes, D.R. Bowler, A. Michelides                                  |
|        Phys. Rev. B. 83, 195131 (2011)                                      |
|      and references therein.                                                |
|                                                                             |
 ----------------------------------------------------------------------------- 

 POTCAR:   PAW_PBE Cr 06Sep2000                   
   VRHFIN =Cr : d5 s1                                                           
   LEXCH  = PE                                                                  
   EATOM  =   276.9744 eV,   20.3570 Ry                                         
                                                                                
   TITEL  = PAW_PBE Cr 06Sep2000                                                
   LULTRA =        F    use ultrasoft PP ?                                      
   IUNSCR =        1    unscreen: 0-lin 1-nonlin 2-no                           
   RPACOR =    2.080    partial core radius                                     
   POMASS =   51.996; ZVAL   =    6.000    mass and valenz                      
   RCORE  =    2.500    outmost cutoff radius                                   
   RWIGS  =    2.500; RWIGS  =    1.323    wigner-seitz radius (au A)           
   ENMAX  =  227.082; ENMIN  =  170.311 eV                                      
   RCLOC  =    1.721    cutoff for local pot                                    
   LCOR   =        T    correct aug charges                                     
   LPAW   =        T    paw PP                                                  
   EAUG   =  402.108                                                            
   DEXC   =    -.035                                                            
   RMAX   =    3.060    core radius for proj-oper                               
   RAUG   =    1.300    factor for augmentation sphere                          
   RDEP   =    2.609    radius for radial grids                                 
   QCUT   =   -4.085; QGAM   =    8.171    optimization parameters              
                                                                                
   Description                                                                  
     l     E      TYP  RCUT    TYP  RCUT                                        
     2   .000     23  2.500                                                     
     2   .000     23  2.500                                                     
     0   .000     23  2.500                                                     
     0   .000     23  2.500                                                     
     1  -.400     23  2.500                                                     
     1  2.000     23  2.500                                                     
     3   .000      7   .000                                                     
  local pseudopotential read in
  partial core-charges read in
  atomic valenz-charges read in
  non local Contribution for L=           2  read in
    real space projection operators read in
  non local Contribution for L=           2  read in
    real space projection operators read in
  non local Contribution for L=           0  read in
    real space projection operators read in
  non local Contribution for L=           0  read in
    real space projection operators read in
  non local Contribution for L=           1  read in
    real space projection operators read in
  non local Contribution for L=           1  read in
    real space projection operators read in
    PAW grid and wavefunctions read in

   number of l-projection  operators is LMAX  =           6
   number of lm-projection operators is LMMAX =          18

 POTCAR:   PAW_PBE Ge 05Jan2001                   
   VRHFIN =Ge: s2p2                                                             
   LEXCH  = PE                                                                  
   EATOM  =   104.9960 eV,    7.7170 Ry                                         
                                                                                
   TITEL  = PAW_PBE Ge 05Jan2001                                                
   LULTRA =        F    use ultrasoft PP ?                                      
   IUNSCR =        1    unscreen: 0-lin 1-nonlin 2-no                           
   RPACOR =    2.170    partial core radius                                     
   POMASS =   72.610; ZVAL   =    4.000    mass and valenz                      
   RCORE  =    2.300    outmost cutoff radius                                   
   RWIGS  =    2.300; RWIGS  =    1.217    wigner-seitz radius (au A)           
   ENMAX  =  173.807; ENMIN  =  130.355 eV                                      
   ICORE  =        3    local potential                                         
   LCOR   =        T    correct aug charges                                     
   LPAW   =        T    paw PP                                                  
   EAUG   =  385.843                                                            
   DEXC   =    -.138                                                            
   RMAX   =    3.497    core radius for proj-oper                               
   RAUG   =    1.300    factor for augmentation sphere                          
   RDEP   =    2.318    radius for radial grids                                 
   QCUT   =   -3.574; QGAM   =    7.148    optimization parameters              
                                                                                
   Description                                                                  
     l     E      TYP  RCUT    TYP  RCUT                                        
     0   .000     23  2.300                                                     
     0   .000     23  2.300                                                     
     1   .000     23  2.300                                                     
     1   .000     23  2.300                                                     
     2   .000     23  2.300                                                     
     3  -.100      7  2.300                                                     
  local pseudopotential read in
  partial core-charges read in
  atomic valenz-charges read in
  non local Contribution for L=           0  read in
    real space projection operators read in
  non local Contribution for L=           0  read in
    real space projection operators read in
  non local Contribution for L=           1  read in
    real space projection operators read in
  non local Contribution for L=           1  read in
    real space projection operators read in
  non local Contribution for L=           2  read in
    real space projection operators read in
    PAW grid and wavefunctions read in

   number of l-projection  operators is LMAX  =           5
   number of lm-projection operators is LMMAX =          13

 POTCAR:    PAW_PBE P 17Jan2003                   
   VRHFIN =P : s2p3                                                             
   LEXCH  = PE                                                                  
   EATOM  =   176.0430 eV,   12.9388 Ry                                         
                                                                                
   TITEL  = PAW_PBE P 17Jan2003                                                 
   LULTRA =        F    use ultrasoft PP ?                                      
   IUNSCR =        1    unscreen: 0-lin 1-nonlin 2-no                           
   RPACOR =    1.500    partial core radius                                     
   POMASS =   30.974; ZVAL   =    5.000    mass and valenz                      
   RCORE  =    1.900    outmost cutoff radius                                   
   RWIGS  =    2.330; RWIGS  =    1.233    wigner-seitz radius (au A)           
   ENMAX  =  270.000; ENMIN  =  191.280 eV                                      
   ICORE  =        2    local potential                                         
   LCOR   =        T    correct aug charges                                     
   LPAW   =        T    paw PP                                                  
   EAUG   =  342.924                                                            
   DEXC   =    -.002                                                            
   RMAX   =    2.887    core radius for proj-oper                               
   RAUG   =    1.300    factor for augmentation sphere                          
   RDEP   =    1.931    radius for radial grids                                 
   QCUT   =   -4.330; QGAM   =    8.659    optimization parameters              
                                                                                
   Description                                                                  
     l     E      TYP  RCUT    TYP  RCUT                                        
     0   .000     23  1.900                                                     
     0   .000     23  1.900                                                     
     1   .000     23  1.900                                                     
     1   .000     23  1.900                                                     
     2   .000     23  1.900                                                     
  local pseudopotential read in
  partial core-charges read in
  atomic valenz-charges read in
  non local Contribution for L=           0  read in
    real space projection operators read in
  non local Contribution for L=           0  read in
    real space projection operators read in
  non local Contribution for L=           1  read in
    real space projection operators read in
  non local Contribution for L=           1  read in
    real space projection operators read in
    PAW grid and wavefunctions read in

   number of l-projection  operators is LMAX  =           4
   number of lm-projection operators is LMMAX =           8

 POTCAR:    PAW_PBE S 17Jan2003                   
   VRHFIN =S : s2p4                                                             
   LEXCH  = PE                                                                  
   EATOM  =   276.8230 eV,   20.3459 Ry                                         
                                                                                
   TITEL  = PAW_PBE S 17Jan2003                                                 
   LULTRA =        F    use ultrasoft PP ?                                      
   IUNSCR =        1    unscreen: 0-lin 1-nonlin 2-no                           
   RPACOR =    1.500    partial core radius                                     
   POMASS =   32.066; ZVAL   =    6.000    mass and valenz                      
   RCORE  =    1.900    outmost cutoff radius                                   
   RWIGS  =    2.200; RWIGS  =    1.164    wigner-seitz radius (au A)           
   ENMAX  =  280.000; ENMIN  =  194.016 eV                                      
   ICORE  =        2    local potential                                         
   LCOR   =        T    correct aug charges                                     
   LPAW   =        T    paw PP                                                  
   EAUG   =  335.092                                                            
   DEXC   =     .000                                                            
   RMAX   =    2.867    core radius for proj-oper                               
   RAUG   =    1.300    factor for augmentation sphere                          
   RDEP   =    1.954    radius for radial grids                                 
   QCUT   =   -4.360; QGAM   =    8.721    optimization parameters              
                                                                                
   Description                                                                  
     l     E      TYP  RCUT    TYP  RCUT                                        
     0   .000     23  1.900                                                     
     0   .000     23  1.900                                                     
     1   .000     23  1.900                                                     
     1   .000     23  1.900                                                     
     2   .000     23  1.900                                                     
  local pseudopotential read in
  partial core-charges read in
  atomic valenz-charges read in
  non local Contribution for L=           0  read in
    real space projection operators read in
  non local Contribution for L=           0  read in
    real space projection operators read in
  non local Contribution for L=           1  read in
    real space projection operators read in
  non local Contribution for L=           1  read in
    real space projection operators read in
    PAW grid and wavefunctions read in

   number of l-projection  operators is LMAX  =           4
   number of lm-projection operators is LMMAX =           8

 Optimization of the real space projectors (new method)

 maximal supplied QI-value         = 15.12
 optimisation between [QCUT,QGAM] = [ 11.64, 23.28] = [ 37.95,151.78] Ry 
 Optimized for a Real-space Cutoff    1.49 Angstroem

   l    n(q)    QCUT    max X(q) W(low)/X(q) W(high)/X(q)  e(spline) 
   2      9    11.641     4.777    0.25E-04    0.21E-05    0.63E-07
   2      9    11.641    31.132    0.13E-03    0.22E-03    0.64E-06
   0     10    11.641    20.416    0.11E-04    0.74E-05    0.19E-07
   0     10    11.641    45.408    0.10E-03    0.85E-04    0.30E-06
   1     10    11.641     7.848    0.22E-04    0.23E-04    0.56E-07
   1     10    11.641     9.895    0.85E-04    0.54E-04    0.16E-06
 Optimization of the real space projectors (new method)

 maximal supplied QI-value         = 16.25
 optimisation between [QCUT,QGAM] = [ 11.54, 23.24] = [ 37.28,151.24] Ry 
 Optimized for a Real-space Cutoff    1.28 Angstroem

   l    n(q)    QCUT    max X(q) W(low)/X(q) W(high)/X(q)  e(spline) 
   0      9    11.539     8.651    0.22E-04    0.16E-04    0.10E-07
   0      9    11.539    33.192    0.11E-03    0.16E-03    0.65E-07
   1      8    11.539     5.899    0.37E-04    0.28E-04    0.43E-07
   1      8    11.539    27.289    0.22E-03    0.28E-04    0.14E-06
   2      8    11.539     4.673    0.11E-03    0.18E-03    0.58E-07
 Optimization of the real space projectors (new method)

 maximal supplied QI-value         = 19.84
 optimisation between [QCUT,QGAM] = [ 11.51, 23.22] = [ 37.09,150.92] Ry 
 Optimized for a Real-space Cutoff    1.21 Angstroem

   l    n(q)    QCUT    max X(q) W(low)/X(q) W(high)/X(q)  e(spline) 
   0      8    11.508     6.651    0.19E-04    0.31E-05    0.49E-08
   0      8    11.508    90.285    0.95E-04    0.17E-03    0.51E-07
   1      8    11.508     4.328    0.14E-04    0.32E-04    0.22E-07
   1      8    11.508    54.583    0.16E-03    0.71E-04    0.89E-07
 Optimization of the real space projectors (new method)

 maximal supplied QI-value         = 19.84
 optimisation between [QCUT,QGAM] = [ 11.51, 23.22] = [ 37.09,150.92] Ry 
 Optimized for a Real-space Cutoff    1.21 Angstroem

   l    n(q)    QCUT    max X(q) W(low)/X(q) W(high)/X(q)  e(spline) 
   0      8    11.508     5.487    0.18E-04    0.22E-05    0.47E-08
   0      8    11.508    85.627    0.96E-04    0.18E-03    0.54E-07
   1      8    11.508     3.530    0.17E-04    0.28E-04    0.21E-07
   1      8    11.508    42.714    0.18E-03    0.63E-04    0.92E-07

 ----------------------------------------------------------------------------- 
|                                                                             |
|  ADVICE TO THIS USER RUNNING 'VASP/VAMP'   (HEAR YOUR MASTER'S VOICE ...):  |
|                                                                             |
|      You enforced a specific xc-type in the INCAR file,                     |
|      a different type was found on the POTCAR file                          |
|          I HOPE YOU KNOW, WHAT YOU ARE  DOING                               |
|                                                                             |
 ----------------------------------------------------------------------------- 

 PAW_PBE Cr 06Sep2000                   :
 energy of atom  1       EATOM= -276.9744
 kinetic energy error for atom=    0.0010 (will be added to EATOM!!)
 PAW_PBE Ge 05Jan2001                   :
 energy of atom  2       EATOM= -104.9960
 kinetic energy error for atom=    0.0002 (will be added to EATOM!!)
  PAW_PBE P 17Jan2003                   :
 energy of atom  3       EATOM= -176.0430
 kinetic energy error for atom=    0.0011 (will be added to EATOM!!)
  PAW_PBE S 17Jan2003                   :
 energy of atom  4       EATOM= -276.8230
 kinetic energy error for atom=    0.0016 (will be added to EATOM!!)


 POSCAR: Cr2 Ge P S6                             
  positions in direct lattice
  velocities in cartesian coordinates
  No initial velocities read in
 exchange correlation table for  LEXCH =       42
   RHO(1)=    0.500       N(1)  =     2000
   RHO(2)=  100.500       N(2)  =     4000



--------------------------------------------------------------------------------------------------------


 ion  position               nearest neighbor table
   1  0.333  0.333  0.500-   6 2.78   5 2.78   7 2.78   8 2.78  10 2.78   9 2.78
   2  0.667  0.667  0.500-   9 2.78   8 2.78  10 2.78   5 2.78   7 2.78   6 2.78
   3  0.000  0.000  0.448-   4 2.43   8 2.63  10 2.63   9 2.63
   4  0.000  0.000  0.552-   3 2.43   5 2.63   7 2.63   6 2.63
   5  0.626  0.000  0.574-   4 2.63   1 2.78   2 2.78
   6  0.000  0.373  0.574-   4 2.63   1 2.78   2 2.78
   7  0.373  0.626  0.574-   4 2.63   1 2.78   2 2.78
   8  0.374  1.000  0.426-   3 2.63   2 2.78   1 2.78
   9  1.000  0.627  0.426-   3 2.63   2 2.78   1 2.78
  10  0.627  0.374  0.426-   3 2.63   2 2.78   1 2.78

  LATTYP: Found a hexagonal cell.
 ALAT       =     6.9077769333
 C/A-ratio  =     3.3939410937
  
  Lattice vectors:
  
 A1 = (   3.4538890000,  -5.9823100000,   0.0000000000)
 A2 = (  -6.9077770000,   0.0000000000,   0.0000000000)
 A3 = (   0.0000000000,   0.0000000000, -23.4445880000)


Analysis of symmetry for initial positions (statically):
=====================================================================
 Subroutine PRICEL returns:
 Original cell was already a primitive cell.
 

 Routine SETGRP: Setting up the symmetry group for a 
 hexagonal supercell.


 Subroutine GETGRP returns: Found  3 space group operations
 (whereof  3 operations were pure point group operations)
 out of a pool of 24 trial point group operations.


The static configuration has the point symmetry C_3 .


Analysis of symmetry for dynamics (positions and initial velocities):
=====================================================================
 Subroutine PRICEL returns:
 Original cell was already a primitive cell.
 

 Routine SETGRP: Setting up the symmetry group for a 
 hexagonal supercell.


 Subroutine GETGRP returns: Found  3 space group operations
 (whereof  3 operations were pure point group operations)
 out of a pool of 24 trial point group operations.


The dynamic configuration has the point symmetry C_3 .


Analysis of constrained symmetry for selective dynamics:
=====================================================================
 Subroutine PRICEL returns:
 Original cell was already a primitive cell.
 

 Routine SETGRP: Setting up the symmetry group for a 
 hexagonal supercell.


 Subroutine GETGRP returns: Found  3 space group operations
 (whereof  3 operations were pure point group operations)
 out of a pool of 24 trial point group operations.


The constrained configuration has the point symmetry C_3 .


Analysis of structural, dynamic, and magnetic symmetry:
=====================================================================
 Subroutine PRICEL returns:
 Original cell was already a primitive cell.
 

 Routine SETGRP: Setting up the symmetry group for a 
 hexagonal supercell.


 Subroutine GETGRP returns: Found  3 space group operations
 (whereof  3 operations were pure point group operations)
 out of a pool of 24 trial point group operations.


The magnetic configuration has the point symmetry C_3 .


 Subroutine INISYM returns: Found  3 space group operations
 (whereof  3 operations are pure point group operations),
 and found     1 'primitive' translations



 KPOINTS: Kpoints from vasprun.xml                

Automatic generation of k-mesh.
Space group operators:
 irot       det(A)        alpha          n_x          n_y          n_z        tau_x        tau_y        tau_z
    1     1.000000     0.000000     1.000000     0.000000     0.000000     0.000000     0.000000     0.000000
    2     1.000000   120.000000     0.000000     0.000000     1.000000     0.000000     0.000000     0.000000
    3     1.000000   120.000000     0.000000     0.000000    -1.000000     0.000000     0.000000     0.000000
 
 Subroutine IBZKPT returns following result:
 ===========================================
 
 Found      5 irreducible k-points:
 
 Following reciprocal coordinates:
            Coordinates               Weight
  0.000000  0.000000  0.000000      1.000000
  0.200000  0.000000  0.000000      6.000000
  0.400000  0.000000  0.000000      6.000000
  0.400000  0.200000  0.000000      6.000000
 -0.400000  0.200000  0.000000      6.000000
 
 Following cartesian coordinates:
            Coordinates               Weight
  0.000000  0.000000  0.000000      1.000000
  0.028953 -0.016716  0.000000      6.000000
  0.057906 -0.033432  0.000000      6.000000
  0.057906  0.000000  0.000000      6.000000
 -0.057906  0.066864  0.000000      6.000000
 
 TETIRR: Found     15 inequivalent tetrahedra from      150


--------------------------------------------------------------------------------------------------------




 Dimension of arrays:
   k-points           NKPTS =      5   k-points in BZ     NKDIM =      5   number of bands    NBANDS=     40
   number of dos      NEDOS =    301   number of ions     NIONS =     10
   non local maximal  LDIM  =      6   non local SUM 2l+1 LMDIM =     18
   total plane-waves  NPLWV = 524880
   max r-space proj   IRMAX =   7543   max aug-charges    IRDMAX=  29641
   dimension x,y,z NGX =    54 NGY =   54 NGZ =  180
   dimension x,y,z NGXF=   108 NGYF=  108 NGZF=  360
   support grid    NGXF=   108 NGYF=  108 NGZF=  360
   ions per type =               2   1   1   6
   NGX,Y,Z   is equivalent  to a cutoff of  13.00, 13.00, 12.76 a.u.
   NGXF,Y,Z  is equivalent  to a cutoff of  25.99, 25.99, 25.53 a.u.

 SYSTEM =  unknown system                          
 POSCAR =  Cr2 Ge P S6                             

 Startparameter for this run:
   NWRITE =      2    write-flag & timer
   PREC   = accura    normal or accurate (medium, high low for compatibility)
   ISTART =      0    job   : 0-new  1-cont  2-samecut
   ICHARG =      2    charge: 1-file 2-atom 10-const
   ISPIN  =      2    spin polarized calculation?
   LNONCOLLINEAR =      F non collinear calculations
   LSORBIT =      F    spin-orbit coupling
   INIWAV =      1    electr: 0-lowe 1-rand  2-diag
   LASPH  =      F    aspherical Exc in radial PAW
   METAGGA=      F    non-selfconsistent MetaGGA calc.

 Electronic Relaxation 1
   ENCUT  =  520.0 eV  38.22 Ry    6.18 a.u.  12.84 12.84 43.59*2*pi/ulx,y,z
   ENINI  =  520.0     initial cutoff
   ENAUG  =  402.1 eV  augmentation charge cutoff
   NELM   =    400;   NELMIN=  2; NELMDL=  0     # of ELM steps 
   EDIFF  = 0.1E-03   stopping-criterion for ELM
   LREAL  =      T    real-space projection
   NLSPLINE    = F    spline interpolate recip. space projectors
   LCOMPAT=      F    compatible to vasp.4.4
   GGA_COMPAT  = T    GGA compatible to vasp.4.4-vasp.4.6
   LMAXPAW     = -100 max onsite density
   LMAXMIX     =    2 max onsite mixed and CHGCAR
   VOSKOWN=      0    Vosko Wilk Nusair interpolation
   ROPT   =   -0.00025  -0.00025  -0.00025  -0.00025
 Ionic relaxation
   EDIFFG = 0.1E-02   stopping-criterion for IOM
   NSW    =     99    number of steps for IOM
   NBLOCK =      1;   KBLOCK =     99    inner block; outer block 
   IBRION =      2    ionic relax: 0-MD 1-quasi-New 2-CG
   NFREE  =      1    steps in history (QN), initial steepest desc. (CG)
   ISIF   =      3    stress and relaxation
   IWAVPR =     11    prediction:  0-non 1-charg 2-wave 3-comb
   ISYM   =      2    0-nonsym 1-usesym 2-fastsym
   LCORR  =      T    Harris-Foulkes like correction to forces

   POTIM  = 0.5000    time-step for ionic-motion
   TEIN   =    0.0    initial temperature
   TEBEG  =    0.0;   TEEND  =   0.0 temperature during run
   SMASS  =  -3.00    Nose mass-parameter (am)
   estimated Nose-frequenzy (Omega)   =  0.10E-29 period in steps =****** mass=  -0.109E-26a.u.
   SCALEE = 1.0000    scale energy and forces
   NPACO  =    256;   APACO  = 16.0  distance and # of slots for P.C.
   PSTRESS=    0.0 pullay stress

  Mass of Ions in am
   POMASS =  52.00 72.61 30.97 32.07
  Ionic Valenz
   ZVAL   =   6.00  4.00  5.00  6.00
  Atomic Wigner-Seitz radii
   RWIGS  =  -1.00 -1.00 -1.00 -1.00
  virtual crystal weights 
   VCA    =   1.00  1.00  1.00  1.00
   NELECT =      57.0000    total number of electrons
   NUPDOWN=      -1.0000    fix difference up-down

 DOS related values:
   EMIN   =  10.00;   EMAX   =-10.00  energy-range for DOS
   EFERMI =   0.00
   ISMEAR =    -5;   SIGMA  =   0.05  broadening in eV -4-tet -1-fermi 0-gaus

 Electronic relaxation 2 (details)
   IALGO  =     38    algorithm
   LDIAG  =      T    sub-space diagonalisation (order eigenvalues)
   LSUBROT=      F    optimize rotation matrix (better conditioning)
   TURBO    =      0    0=normal 1=particle mesh
   IRESTART =      0    0=no restart 2=restart with 2 vectors
   NREBOOT  =      0    no. of reboots
   NMIN     =      0    reboot dimension
   EREF     =   0.00    reference energy to select bands
   IMIX   =      4    mixing-type and parameters
     AMIX     =   0.40;   BMIX     =  1.00
     AMIX_MAG =   1.60;   BMIX_MAG =  1.00
     AMIN     =   0.01
     WC   =   100.;   INIMIX=   1;  MIXPRE=   1;  MAXMIX= -45

 Intra band minimization:
   WEIMIN = 0.0010     energy-eigenvalue tresh-hold
   EBREAK =  0.63E-06  absolut break condition
   DEPER  =   0.30     relativ break condition  

   TIME   =   0.40     timestep for ELM

  volume/ion in A,a.u.               =      96.88       653.80
  Fermi-wavevector in a.u.,A,eV,Ry     =   0.636722  1.203230  5.516004  0.405415
  Thomas-Fermi vector in A             =   1.701488

 Write flags
   LWAVE        =      F    write WAVECAR
   LDOWNSAMPLE  =      F    k-point downsampling of WAVECAR
   LCHARG       =      T    write CHGCAR
   LVTOT        =      F    write LOCPOT, total local potential
   LVHAR        =      F    write LOCPOT, Hartree potential only
   LELF         =      F    write electronic localiz. function (ELF)
   LORBIT       =     11    0 simple, 1 ext, 2 COOP (PROOUT), +10 PAW based schemes


 Dipole corrections
   LMONO  =      F    monopole corrections only (constant potential shift)
   LDIPOL =      F    correct potential (dipole corrections)
   IDIPOL =      0    1-x, 2-y, 3-z, 4-all directions 
   EPSILON=  1.0000000 bulk dielectric constant

 Exchange correlation treatment:
   GGA     =    BO    GGA type
   LEXCH   =    42    internal setting for exchange type
   VOSKOWN=      0    Vosko Wilk Nusair interpolation
   LHFCALC =     F    Hartree Fock is set to
   LHFONE  =     F    Hartree Fock one center treatment
   AEXX    =    0.0000 exact exchange contribution

 vdW DFT:
   LUSE_VDW   =     T    switch on vdW DFT
   Zab_VDW    =-.8491    correlation parameter
   PARAM1     =0.1833
   PARAM2     =0.2200
   PARAM3     =0.0000
   -- rVV10 --
   BPARAM     = 6.3000
   CPARAM     = 0.0093

 Linear response parameters
   LEPSILON=     F    determine dielectric tensor
   LRPA    =     F    only Hartree local field effects (RPA)
   LNABLA  =     F    use nabla operator in PAW spheres
   LVEL    =     F    velocity operator in full k-point grid
   LINTERFAST=   F  fast interpolation
   KINTER  =     0    interpolate to denser k-point grid
   CSHIFT  =0.1000    complex shift for real part using Kramers Kronig
   OMEGAMAX=  -1.0    maximum frequency
   DEG_THRESHOLD= 0.2000000E-02 threshold for treating states as degnerate
   RTIME   =   -0.100 relaxation time in fs
  (WPLASMAI=    0.000 imaginary part of plasma frequency in eV, 0.658/RTIME)
   DFIELD  = 0.0000000 0.0000000 0.0000000 field for delta impulse in time

 Orbital magnetization related:
   ORBITALMAG=     F  switch on orbital magnetization
   LCHIMAG   =     F  perturbation theory with respect to B field
   DQ        =  0.001000  dq finite difference perturbation B field
   LLRAUG    =     F  two centre corrections for induced B field



--------------------------------------------------------------------------------------------------------


 conjugate gradient relaxation of ions
   using selective dynamics as specified on POSCAR
 charge density and potential will be updated during run
 spin polarized calculation
 Variant of blocked Davidson
 Davidson routine will perform the subspace rotation
 perform sub-space diagonalisation
    after iterative eigenvector-optimisation
 modified Broyden-mixing scheme, WC =      100.0
 initial mixing is a Kerker type mixing with AMIX =  0.4000 and BMIX =      1.0000
 Hartree-type preconditioning will be used
 using additional bands           11
 real space projection scheme for non local part
 use partial core corrections
 calculate Harris-corrections to forces   (improved forces if not selfconsistent)
 use gradient corrections 
 use of overlap-Matrix (Vanderbilt PP)
 Fermi weights with tetrahedron method with Bloechl corrections


--------------------------------------------------------------------------------------------------------


  energy-cutoff  :      520.00
  volume of cell :      968.84
      direct lattice vectors                 reciprocal lattice vectors
     6.907777000 -0.000000000  0.000000000     0.144764372 -0.083579742  0.000000000
     3.453888000  5.982310000  0.000000000     0.000000000  0.167159509 -0.000000000
     0.000000000  0.000000000 23.444588000    -0.000000000  0.000000000  0.042653767

  length of vectors
     6.907777000  6.907776433 23.444588000     0.167159495  0.167159509  0.042653767



 k-points in units of 2pi/SCALE and weight: Kpoints from vasprun.xml                
   0.00000000  0.00000000  0.00000000       0.040
   0.02895287 -0.01671595  0.00000000       0.240
   0.05790575 -0.03343190  0.00000000       0.240
   0.05790575  0.00000000  0.00000000       0.240
  -0.05790575  0.06686380  0.00000000       0.240

 k-points in reciprocal lattice and weights: Kpoints from vasprun.xml                
   0.00000000  0.00000000  0.00000000       0.040
   0.20000000  0.00000000  0.00000000       0.240
   0.40000000  0.00000000  0.00000000       0.240
   0.40000000  0.20000000  0.00000000       0.240
  -0.40000000  0.20000000  0.00000000       0.240

 position of ions in fractional coordinates (direct lattice) 
   0.33333300  0.33333300  0.49992500
   0.66666700  0.66666700  0.50007500
   0.00000000  0.00000000  0.44821600
   0.00000000  0.00000000  0.55178400
   0.62635700  0.00042000  0.57375200
   0.00042000  0.37322400  0.57375200
   0.37322400  0.62635700  0.57375200
   0.37364300  0.99958000  0.42624800
   0.99958000  0.62677600  0.42624800
   0.62677600  0.37364300  0.42624800

 position of ions in cartesian coordinates  (Angst):
   3.45388488  1.99410134 11.72053566
   6.90778012  3.98820866 11.72405234
   0.00000000  0.00000000 10.50823946
   0.00000000  0.00000000 12.93634854
   4.32818511  0.00251257 13.45137925
   1.29197516  2.23274167 13.45137925
   4.74151509  3.74706174 13.45137925
   6.03347989  5.97979743  9.99320875
   9.06968984  3.74956833  9.99320875
   5.62014991  2.23524826  9.99320875



--------------------------------------------------------------------------------------------------------


 k-point  1 :   0.0000 0.0000 0.0000  plane waves:   26073
 k-point  2 :   0.2000 0.0000 0.0000  plane waves:   26070
 k-point  3 :   0.4000 0.0000 0.0000  plane waves:   26086
 k-point  4 :   0.4000 0.2000 0.0000  plane waves:   26085
 k-point  5 :  -0.4000 0.2000 0.0000  plane waves:   26115

 maximum and minimum number of plane-waves per node :     26115    26070

 maximum number of plane-waves:     26115
 maximum index in each direction: 
   IXMAX=   13   IYMAX=   12   IZMAX=   43
   IXMIN=  -13   IYMIN=  -13   IZMIN=  -43


 serial   3D FFT for wavefunctions
 parallel 3D FFT for charge:
    minimum data exchange during FFTs selected (reduces bandwidth)


 total amount of memory used by VASP MPI-rank0   172196. kBytes
=======================================================================

   base      :      30000. kBytes
   nonlr-proj:       6036. kBytes
   fftplans  :      20284. kBytes
   grid      :      94580. kBytes
   one-center:        311. kBytes
   wavefun   :      20985. kBytes

     INWAV:  cpu time    0.0000: real time    0.0000
 Broyden mixing: mesh for mixing (old mesh)
   NGX = 25   NGY = 25   NGZ = 87
  (NGX  =108   NGY  =108   NGZ  =360)
  gives a total of  54375 points

 initial charge density was supplied:
 charge density of overlapping atoms calculated
 number of electron      57.0000000 magnetization       6.0000000
 keeping initial charge density in first step


--------------------------------------------------------------------------------------------------------


 Maximum index for non-local projection operator         7247
 Maximum index for augmentation-charges         4076 (set IRDMAX)


--------------------------------------------------------------------------------------------------------


 First call to EWALD:  gamma=   0.179
 Maximum number of real-space cells 4x 4x 1
 Maximum number of reciprocal cells 2x 2x 6

    FEWALD:  cpu time    0.0000: real time    0.0010


--------------------------------------- Iteration      1(   1)  ---------------------------------------


vdW kernel read from vdw_kernel.bindat
  0.0000  0.2424  0.5071  0.7962  1.1119  1.4567  1.8333  2.2446  2.6937  3.1842
  3.7199  4.3049  4.9438  5.6415  6.4036  7.2358  8.1446  9.1372 10.2212 11.4050
 12.6979 14.1099 15.6519 17.3360 19.1751 21.1837 23.3773 25.7729 28.3892 31.2465
 34.3669 37.7748 41.4965 45.5611 50.0000

    POTLOK:  cpu time   68.7400: real time   68.7995
    SETDIJ:  cpu time    0.0440: real time    0.0410
     EDDAV:  cpu time   17.0880: real time   17.1310
 BZINTS: Fermi energy:  6.166040; 57.000000 electrons
         Band energy:  17.062530;  BLOECHL correction: -0.052530
       DOS:  cpu time    0.0040: real time    0.0040
    --------------------------------------------
      LOOP:  cpu time   85.8760: real time   85.9754

 eigenvalue-minimisations  :   800
 total energy-change (2. order) : 0.4467897E+03  (-0.1607750E+04)
 number of electron      57.0000000 magnetization       6.0000000
 augmentation part       57.0000000 magnetization       6.0000000

 Free energy of the ion-electron system (eV)
  ---------------------------------------------------
  alpha Z        PSCENC =        20.97303478
  Ewald energy   TEWEN  =      6221.61188061
  -Hartree energ DENC   =     -8427.49049463
  -exchange      EXHF   =         0.00000000
  -V(xc)+E(xc)   XCENC  =        21.51884775
  PAW double counting   =      1136.37204732    -1049.03645672
  entropy T*S    EENTRO =         0.00000000
  eigenvalues    EBANDS =        17.06253011
  atomic energy  EATOM  =      2505.77835381
  Solvation  Ediel_sol  =         0.00000000
  ---------------------------------------------------
  free energy    TOTEN  =       446.78974303 eV

  energy without entropy =      446.78974303  energy(sigma->0) =      446.78974303


--------------------------------------------------------------------------------------------------------




--------------------------------------- Iteration      1(   2)  ---------------------------------------


     EDDAV:  cpu time   30.4800: real time   30.7839
 BZINTS: Fermi energy: -0.225905; 57.000000 electrons
         Band energy:-375.071974;  BLOECHL correction: -0.070773
       DOS:  cpu time    0.0040: real time    0.0040
    --------------------------------------------
      LOOP:  cpu time   30.4840: real time   30.7880

 eigenvalue-minimisations  :  1072
 total energy-change (2. order) :-0.3921345E+03  (-0.3753788E+03)
 number of electron      57.0000000 magnetization       6.0000000
 augmentation part       57.0000000 magnetization       6.0000000

 Free energy of the ion-electron system (eV)
  ---------------------------------------------------
  alpha Z        PSCENC =        20.97303478
  Ewald energy   TEWEN  =      6221.61188061
  -Hartree energ DENC   =     -8427.49049463
  -exchange      EXHF   =         0.00000000
  -V(xc)+E(xc)   XCENC  =        21.51884775
  PAW double counting   =      1136.37204732    -1049.03645672
  entropy T*S    EENTRO =         0.00000000
  eigenvalues    EBANDS =      -375.07197404
  atomic energy  EATOM  =      2505.77835381
  Solvation  Ediel_sol  =         0.00000000
  ---------------------------------------------------
  free energy    TOTEN  =        54.65523889 eV

  energy without entropy =       54.65523889  energy(sigma->0) =       54.65523889


--------------------------------------------------------------------------------------------------------




--------------------------------------- Iteration      1(   3)  ---------------------------------------


     EDDAV:  cpu time   28.2280: real time   28.5080
 BZINTS: Fermi energy: -2.197437; 57.000000 electrons
         Band energy:-478.721286;  BLOECHL correction: -0.003926
       DOS:  cpu time    0.0040: real time    0.0041
    --------------------------------------------
      LOOP:  cpu time   28.2320: real time   28.5121

 eigenvalue-minimisations  :  1208
 total energy-change (2. order) :-0.1036493E+03  (-0.9944574E+02)
 number of electron      57.0000000 magnetization       6.0000000
 augmentation part       57.0000000 magnetization       6.0000000

 Free energy of the ion-electron system (eV)
  ---------------------------------------------------
  alpha Z        PSCENC =        20.97303478
  Ewald energy   TEWEN  =      6221.61188061
  -Hartree energ DENC   =     -8427.49049463
  -exchange      EXHF   =         0.00000000
  -V(xc)+E(xc)   XCENC  =        21.51884775
  PAW double counting   =      1136.37204732    -1049.03645672
  entropy T*S    EENTRO =         0.00000000
  eigenvalues    EBANDS =      -478.72128595
  atomic energy  EATOM  =      2505.77835381
  Solvation  Ediel_sol  =         0.00000000
  ---------------------------------------------------
  free energy    TOTEN  =       -48.99407302 eV

  energy without entropy =      -48.99407302  energy(sigma->0) =      -48.99407302


--------------------------------------------------------------------------------------------------------




--------------------------------------- Iteration      1(   4)  ---------------------------------------


     EDDAV:  cpu time   27.3320: real time   27.3687
 BZINTS: Fermi energy: -2.299024; 57.000000 electrons
         Band energy:-487.350335;  BLOECHL correction: -0.011227
       DOS:  cpu time    0.0040: real time    0.0042
    --------------------------------------------
      LOOP:  cpu time   27.3360: real time   27.3729

 eigenvalue-minimisations  :  1184
 total energy-change (2. order) :-0.8629049E+01  (-0.8085776E+01)
 number of electron      57.0000000 magnetization       6.0000000
 augmentation part       57.0000000 magnetization       6.0000000

 Free energy of the ion-electron system (eV)
  ---------------------------------------------------
  alpha Z        PSCENC =        20.97303478
  Ewald energy   TEWEN  =      6221.61188061
  -Hartree energ DENC   =     -8427.49049463
  -exchange      EXHF   =         0.00000000
  -V(xc)+E(xc)   XCENC  =        21.51884775
  PAW double counting   =      1136.37204732    -1049.03645672
  entropy T*S    EENTRO =         0.00000000
  eigenvalues    EBANDS =      -487.35033468
  atomic energy  EATOM  =      2505.77835381
  Solvation  Ediel_sol  =         0.00000000
  ---------------------------------------------------
  free energy    TOTEN  =       -57.62312176 eV

  energy without entropy =      -57.62312176  energy(sigma->0) =      -57.62312176


--------------------------------------------------------------------------------------------------------




--------------------------------------- Iteration      1(   5)  ---------------------------------------


     EDDAV:  cpu time   27.7080: real time   27.8930
 BZINTS: Fermi energy: -2.317572; 57.000000 electrons
         Band energy:-487.773085;  BLOECHL correction: -0.010015
       DOS:  cpu time    0.0040: real time    0.0044
    CHARGE:  cpu time    2.1120: real time    2.1131
    MIXING:  cpu time    0.0480: real time    0.0475
    --------------------------------------------
      LOOP:  cpu time   29.8720: real time   30.0581

 eigenvalue-minimisations  :  1192
 total energy-change (2. order) :-0.4227507E+00  (-0.4024066E+00)
 number of electron      56.9999994 magnetization       5.6658780
 augmentation part       -5.2089179 magnetization       4.1156300

 Broyden mixing:
  rms(total) = 0.27732E+01    rms(broyden)= 0.27732E+01
  rms(prec ) = 0.31237E+01
  weight for this iteration     100.00

 Free energy of the ion-electron system (eV)
  ---------------------------------------------------
  alpha Z        PSCENC =        20.97303478
  Ewald energy   TEWEN  =      6221.61188061
  -Hartree energ DENC   =     -8427.49049463
  -exchange      EXHF   =         0.00000000
  -V(xc)+E(xc)   XCENC  =        21.51884775
  PAW double counting   =      1136.37204732    -1049.03645672
  entropy T*S    EENTRO =         0.00000000
  eigenvalues    EBANDS =      -487.77308537
  atomic energy  EATOM  =      2505.77835381
  Solvation  Ediel_sol  =         0.00000000
  ---------------------------------------------------
  free energy    TOTEN  =       -58.04587245 eV

  energy without entropy =      -58.04587245  energy(sigma->0) =      -58.04587245


--------------------------------------------------------------------------------------------------------




--------------------------------------- Iteration      1(   6)  ---------------------------------------


    POTLOK:  cpu time  118.8840: real time  119.8467
    SETDIJ:  cpu time    0.0920: real time    0.0917
     EDDAV:  cpu time   44.9160: real time   45.3431
 BZINTS: Fermi energy: -5.075076; 57.000000 electrons
         Band energy:-632.814781;  BLOECHL correction: -0.019310
       DOS:  cpu time    0.0040: real time    0.0064
    CHARGE:  cpu time    3.4720: real time    3.5021
    MIXING:  cpu time    0.0600: real time    0.0612
    --------------------------------------------
      LOOP:  cpu time  167.4280: real time  168.8512

 eigenvalue-minimisations  :  1144
 total energy-change (2. order) :-0.9377304E+02  (-0.5361041E+02)
 number of electron      56.9999992 magnetization       5.5416703
 augmentation part        9.5638136 magnetization       3.7049617

 Broyden mixing:
  rms(total) = 0.65603E+01    rms(broyden)= 0.65601E+01
  rms(prec ) = 0.73884E+01
  weight for this iteration     100.00

 eigenvalues of (default mixing * dielectric matrix)
  average eigenvalue GAMMA=   0.2952
  0.2952

 Free energy of the ion-electron system (eV)
  ---------------------------------------------------
  alpha Z        PSCENC =        20.97303478
  Ewald energy   TEWEN  =      6221.61188061
  -Hartree energ DENC   =     -8387.00962488
  -exchange      EXHF   =         0.00000000
  -V(xc)+E(xc)   XCENC  =        21.99297710
  PAW double counting   =      1058.54721235     -960.89796410
  entropy T*S    EENTRO =         0.00000000
  eigenvalues    EBANDS =      -632.81478083
  atomic energy  EATOM  =      2505.77835381
  Solvation  Ediel_sol  =         0.00000000
  ---------------------------------------------------
  free energy    TOTEN  =      -151.81891116 eV

  energy without entropy =     -151.81891116  energy(sigma->0) =     -151.81891116


--------------------------------------------------------------------------------------------------------




--------------------------------------- Iteration      1(   7)  ---------------------------------------


    POTLOK:  cpu time   99.0640: real time   99.4449
    SETDIJ:  cpu time    0.0560: real time    0.0578
     EDDAV:  cpu time   38.8880: real time   39.2344
 BZINTS: Fermi energy: -4.104434; 57.000000 electrons
         Band energy:-482.154128;  BLOECHL correction: -0.037470
       DOS:  cpu time    0.0080: real time    0.0059
    CHARGE:  cpu time    3.4040: real time    3.4077
    MIXING:  cpu time    0.0760: real time    0.0774
    --------------------------------------------
      LOOP:  cpu time  141.4960: real time  142.2281

 eigenvalue-minimisations  :   960
 total energy-change (2. order) : 0.1093475E+03  (-0.3364294E+02)
 number of electron      56.9999994 magnetization       5.5758441
 augmentation part        0.0882735 magnetization       2.4431161

 Broyden mixing:
  rms(total) = 0.17339E+01    rms(broyden)= 0.17334E+01
  rms(prec ) = 0.17746E+01
  weight for this iteration     100.00

 eigenvalues of (default mixing * dielectric matrix)
  average eigenvalue GAMMA=   0.3083
  0.3083  0.3083

 Free energy of the ion-electron system (eV)
  ---------------------------------------------------
  alpha Z        PSCENC =        20.97303478
  Ewald energy   TEWEN  =      6221.61188061
  -Hartree energ DENC   =     -8417.21587327
  -exchange      EXHF   =         0.00000000
  -V(xc)+E(xc)   XCENC  =        21.17702956
  PAW double counting   =      1123.97999017    -1036.62166439
  entropy T*S    EENTRO =         0.00000000
  eigenvalues    EBANDS =      -482.15412811
  atomic energy  EATOM  =      2505.77835381
  Solvation  Ediel_sol  =         0.00000000
  ---------------------------------------------------
  free energy    TOTEN  =       -42.47137684 eV

  energy without entropy =      -42.47137684  energy(sigma->0) =      -42.47137684


--------------------------------------------------------------------------------------------------------




--------------------------------------- Iteration      1(   8)  ---------------------------------------


    POTLOK:  cpu time   99.2080: real time   99.9072
    SETDIJ:  cpu time    0.0600: real time    0.0579
     EDDAV:  cpu time   35.4680: real time   35.8720
 BZINTS: Fermi energy: -4.177461; 57.000000 electrons
         Band energy:-487.435198;  BLOECHL correction: -0.011527
       DOS:  cpu time    0.0080: real time    0.0058
    CHARGE:  cpu time    3.3600: real time    3.4069
    MIXING:  cpu time    0.0600: real time    0.0599
    --------------------------------------------
      LOOP:  cpu time  138.1640: real time  139.3098

 eigenvalue-minimisations  :   976
 total energy-change (2. order) :-0.3839398E+01  (-0.2428096E+01)
 number of electron      56.9999994 magnetization       5.5967560
 augmentation part       -0.7901335 magnetization       3.0635100

 Broyden mixing:
  rms(total) = 0.12130E+01    rms(broyden)= 0.12130E+01
  rms(prec ) = 0.12243E+01
  weight for this iteration     100.00

 eigenvalues of (default mixing * dielectric matrix)
  average eigenvalue GAMMA=   0.3970
  0.4364  0.4364  0.3183

 Free energy of the ion-electron system (eV)
  ---------------------------------------------------
  alpha Z        PSCENC =        20.97303478
  Ewald energy   TEWEN  =      6221.61188061
  -Hartree energ DENC   =     -8416.10869143
  -exchange      EXHF   =         0.00000000
  -V(xc)+E(xc)   XCENC  =        21.32461524
  PAW double counting   =      1122.12555116    -1034.58032136
  entropy T*S    EENTRO =         0.00000000
  eigenvalues    EBANDS =      -487.43519804
  atomic energy  EATOM  =      2505.77835381
  Solvation  Ediel_sol  =         0.00000000
  ---------------------------------------------------
  free energy    TOTEN  =       -46.31077523 eV

  energy without entropy =      -46.31077523  energy(sigma->0) =      -46.31077523


--------------------------------------------------------------------------------------------------------




--------------------------------------- Iteration      1(   9)  ---------------------------------------


    POTLOK:  cpu time  100.1600: real time  100.9309
    SETDIJ:  cpu time    0.0560: real time    0.0548
     EDDAV:  cpu time   38.8600: real time   39.3042
 BZINTS: Fermi energy: -4.147281; 57.000000 electrons
         Band energy:-486.978136;  BLOECHL correction: -0.012179
       DOS:  cpu time    0.0080: real time    0.0046
    CHARGE:  cpu time    3.2320: real time    3.2594
    MIXING:  cpu time    0.0760: real time    0.0737
    --------------------------------------------
      LOOP:  cpu time  142.3920: real time  143.6276

 eigenvalue-minimisations  :  1160
 total energy-change (2. order) :-0.7271902E+00  (-0.1668041E+00)
 number of electron      56.9999994 magnetization       5.6781140
 augmentation part       -0.5974296 magnetization       3.4501941

 Broyden mixing:
  rms(total) = 0.10190E+01    rms(broyden)= 0.10190E+01
  rms(prec ) = 0.10340E+01
  weight for this iteration     100.00

 eigenvalues of (default mixing * dielectric matrix)
  average eigenvalue GAMMA=   0.6086
  0.8414  0.8414  0.3758  0.3758

 Free energy of the ion-electron system (eV)
  ---------------------------------------------------
  alpha Z        PSCENC =        20.97303478
  Ewald energy   TEWEN  =      6221.61188061
  -Hartree energ DENC   =     -8418.04464340
  -exchange      EXHF   =         0.00000000
  -V(xc)+E(xc)   XCENC  =        22.06929286
  PAW double counting   =      1125.79248122    -1038.24022941
  entropy T*S    EENTRO =         0.00000000
  eigenvalues    EBANDS =      -486.97813589
  atomic energy  EATOM  =      2505.77835381
  Solvation  Ediel_sol  =         0.00000000
  ---------------------------------------------------
  free energy    TOTEN  =       -47.03796543 eV

  energy without entropy =      -47.03796543  energy(sigma->0) =      -47.03796543


--------------------------------------------------------------------------------------------------------




--------------------------------------- Iteration      1(  10)  ---------------------------------------


    POTLOK:  cpu time  100.4400: real time  101.3411
    SETDIJ:  cpu time    0.0480: real time    0.0508
     EDDAV:  cpu time   40.9600: real time   41.5454
 BZINTS: Fermi energy: -4.080525; 57.000000 electrons
         Band energy:-484.873164;  BLOECHL correction: -0.014496
       DOS:  cpu time    0.0040: real time    0.0055
    CHARGE:  cpu time    3.2240: real time    3.2579
    MIXING:  cpu time    0.0800: real time    0.0813
    --------------------------------------------
      LOOP:  cpu time  144.7560: real time  146.2821

 eigenvalue-minimisations  :  1248
 total energy-change (2. order) :-0.7112952E+00  (-0.6319174E-01)
 number of electron      56.9999994 magnetization       5.7573920
 augmentation part       -0.5297434 magnetization       4.2068781

 Broyden mixing:
  rms(total) = 0.54284E+00    rms(broyden)= 0.54284E+00
  rms(prec ) = 0.56493E+00
  weight for this iteration     100.00

 eigenvalues of (default mixing * dielectric matrix)
  average eigenvalue GAMMA=   0.7836
  1.2540  1.2540  0.3506  0.5297  0.5297

 Free energy of the ion-electron system (eV)
  ---------------------------------------------------
  alpha Z        PSCENC =        20.97303478
  Ewald energy   TEWEN  =      6221.61188061
  -Hartree energ DENC   =     -8422.46775517
  -exchange      EXHF   =         0.00000000
  -V(xc)+E(xc)   XCENC  =        24.11368769
  PAW double counting   =      1130.94062739    -1043.82592598
  entropy T*S    EENTRO =         0.00000000
  eigenvalues    EBANDS =      -484.87316372
  atomic energy  EATOM  =      2505.77835381
  Solvation  Ediel_sol  =         0.00000000
  ---------------------------------------------------
  free energy    TOTEN  =       -47.74926061 eV

  energy without entropy =      -47.74926061  energy(sigma->0) =      -47.74926061


--------------------------------------------------------------------------------------------------------




--------------------------------------- Iteration      1(  11)  ---------------------------------------


    POTLOK:  cpu time   99.7320: real time  100.5006
    SETDIJ:  cpu time    0.0520: real time    0.0523
     EDDAV:  cpu time   43.0160: real time   43.3112
 BZINTS: Fermi energy: -4.074369; 57.000000 electrons
         Band energy:-484.548256;  BLOECHL correction: -0.009411
       DOS:  cpu time    0.0040: real time    0.0067
    CHARGE:  cpu time    3.2480: real time    3.2594
    MIXING:  cpu time    0.0920: real time    0.1010
    --------------------------------------------
      LOOP:  cpu time  146.1440: real time  147.2312

 eigenvalue-minimisations  :  1272
 total energy-change (2. order) :-0.6558790E-01  (-0.3303560E-01)
 number of electron      56.9999994 magnetization       5.7518570
 augmentation part       -0.7078111 magnetization       4.9779685

 Broyden mixing:
  rms(total) = 0.17506E+00    rms(broyden)= 0.17506E+00
  rms(prec ) = 0.19234E+00
  weight for this iteration     100.00

 eigenvalues of (default mixing * dielectric matrix)
  average eigenvalue GAMMA=   0.7157
  1.2785  1.2785  0.5224  0.5224  0.3462  0.3462

 Free energy of the ion-electron system (eV)
  ---------------------------------------------------
  alpha Z        PSCENC =        20.97303478
  Ewald energy   TEWEN  =      6221.61188061
  -Hartree energ DENC   =     -8424.35862058
  -exchange      EXHF   =         0.00000000
  -V(xc)+E(xc)   XCENC  =        26.05922277
  PAW double counting   =      1131.81474522    -1045.14520917
  entropy T*S    EENTRO =         0.00000000
  eigenvalues    EBANDS =      -484.54825595
  atomic energy  EATOM  =      2505.77835381
  Solvation  Ediel_sol  =         0.00000000
  ---------------------------------------------------
  free energy    TOTEN  =       -47.81484851 eV

  energy without entropy =      -47.81484851  energy(sigma->0) =      -47.81484851


--------------------------------------------------------------------------------------------------------




--------------------------------------- Iteration      1(  12)  ---------------------------------------


    POTLOK:  cpu time  102.0760: real time  102.4660
    SETDIJ:  cpu time    0.0600: real time    0.0618
     EDDAV:  cpu time   40.7560: real time   41.6171
 BZINTS: Fermi energy: -4.075292; 57.000000 electrons
         Band energy:-484.917585;  BLOECHL correction: -0.007389
       DOS:  cpu time    0.0040: real time    0.0057
    CHARGE:  cpu time    3.2720: real time    3.3272
    MIXING:  cpu time    0.0800: real time    0.0860
    --------------------------------------------
      LOOP:  cpu time  146.2480: real time  147.5638

 eigenvalue-minimisations  :  1200
 total energy-change (2. order) : 0.5941670E-02  (-0.6735094E-02)
 number of electron      56.9999994 magnetization       5.7334937
 augmentation part       -0.7929032 magnetization       5.3424078

 Broyden mixing:
  rms(total) = 0.14541E+00    rms(broyden)= 0.14541E+00
  rms(prec ) = 0.15463E+00
  weight for this iteration     100.00

 eigenvalues of (default mixing * dielectric matrix)
  average eigenvalue GAMMA=   0.6191
  1.2786  1.2786  0.5159  0.5159  0.3386  0.2846  0.1217

 Free energy of the ion-electron system (eV)
  ---------------------------------------------------
  alpha Z        PSCENC =        20.97303478
  Ewald energy   TEWEN  =      6221.61188061
  -Hartree energ DENC   =     -8424.03997239
  -exchange      EXHF   =         0.00000000
  -V(xc)+E(xc)   XCENC  =        26.15927971
  PAW double counting   =      1131.13868146    -1044.51257957
  entropy T*S    EENTRO =         0.00000000
  eigenvalues    EBANDS =      -484.91758526
  atomic energy  EATOM  =      2505.77835381
  Solvation  Ediel_sol  =         0.00000000
  ---------------------------------------------------
  free energy    TOTEN  =       -47.80890684 eV

  energy without entropy =      -47.80890684  energy(sigma->0) =      -47.80890684


--------------------------------------------------------------------------------------------------------




--------------------------------------- Iteration      1(  13)  ---------------------------------------


    POTLOK:  cpu time  100.9720: real time  101.9188
    SETDIJ:  cpu time    0.0560: real time    0.0539
     EDDAV:  cpu time   42.3800: real time   43.0706
 BZINTS: Fermi energy: -4.076307; 57.000000 electrons
         Band energy:-485.102517;  BLOECHL correction: -0.004775
       DOS:  cpu time    0.0040: real time    0.0051
    CHARGE:  cpu time    3.0120: real time    3.2815
    MIXING:  cpu time    0.0920: real time    0.1119
    --------------------------------------------
      LOOP:  cpu time  146.5160: real time  148.4419

 eigenvalue-minimisations  :  1288
 total energy-change (2. order) :-0.4701639E-02  (-0.1338029E-02)
 number of electron      56.9999994 magnetization       5.6700809
 augmentation part       -0.8297562 magnetization       5.4694942

 Broyden mixing:
  rms(total) = 0.13722E+00    rms(broyden)= 0.13722E+00
  rms(prec ) = 0.14363E+00
  weight for this iteration     100.00

 eigenvalues of (default mixing * dielectric matrix)
  average eigenvalue GAMMA=   0.6352
  1.2685  1.2685  0.4186  0.4186  0.5229  0.5229  0.3433  0.3180

 Free energy of the ion-electron system (eV)
  ---------------------------------------------------
  alpha Z        PSCENC =        20.97303478
  Ewald energy   TEWEN  =      6221.61188061
  -Hartree energ DENC   =     -8423.83438667
  -exchange      EXHF   =         0.00000000
  -V(xc)+E(xc)   XCENC  =        26.12086680
  PAW double counting   =      1130.81557815    -1044.17641885
  entropy T*S    EENTRO =         0.00000000
  eigenvalues    EBANDS =      -485.10251711
  atomic energy  EATOM  =      2505.77835381
  Solvation  Ediel_sol  =         0.00000000
  ---------------------------------------------------
  free energy    TOTEN  =       -47.81360848 eV

  energy without entropy =      -47.81360848  energy(sigma->0) =      -47.81360848


--------------------------------------------------------------------------------------------------------




--------------------------------------- Iteration      1(  14)  ---------------------------------------


    POTLOK:  cpu time  100.2960: real time  100.6968
    SETDIJ:  cpu time    0.0680: real time    0.0668
     EDDAV:  cpu time   36.9080: real time   37.3785
 BZINTS: Fermi energy: -4.073626; 57.000000 electrons
         Band energy:-485.079313;  BLOECHL correction:  0.000000
       DOS:  cpu time    0.0040: real time    0.0026
    CHARGE:  cpu time    3.0840: real time    3.1554
    MIXING:  cpu time    0.0800: real time    0.0801
    --------------------------------------------
      LOOP:  cpu time  140.4400: real time  141.3802

 eigenvalue-minimisations  :  1176
 total energy-change (2. order) :-0.1262893E-01  (-0.2100413E-02)
 number of electron      56.9999994 magnetization       5.4486326
 augmentation part       -0.8017057 magnetization       5.2920610

 Broyden mixing:
  rms(total) = 0.11978E+00    rms(broyden)= 0.11978E+00
  rms(prec ) = 0.12876E+00
  weight for this iteration     100.00

 eigenvalues of (default mixing * dielectric matrix)
  average eigenvalue GAMMA=   0.8934
  1.3854  1.3854  1.3283  1.3283  0.7069  0.7069  0.5294  0.3549  0.3155

 Free energy of the ion-electron system (eV)
  ---------------------------------------------------
  alpha Z        PSCENC =        20.97303478
  Ewald energy   TEWEN  =      6221.61188061
  -Hartree energ DENC   =     -8423.89881048
  -exchange      EXHF   =         0.00000000
  -V(xc)+E(xc)   XCENC  =        26.12499841
  PAW double counting   =      1130.90823159    -1044.24461318
  entropy T*S    EENTRO =         0.00000000
  eigenvalues    EBANDS =      -485.07931296
  atomic energy  EATOM  =      2505.77835381
  Solvation  Ediel_sol  =         0.00000000
  ---------------------------------------------------
  free energy    TOTEN  =       -47.82623741 eV

  energy without entropy =      -47.82623741  energy(sigma->0) =      -47.82623741


--------------------------------------------------------------------------------------------------------




--------------------------------------- Iteration      1(  15)  ---------------------------------------


    POTLOK:  cpu time  102.7360: real time  103.0993
    SETDIJ:  cpu time    0.0640: real time    0.0618
     EDDAV:  cpu time   33.6960: real time   34.1312
 BZINTS: Fermi energy: -4.165401; 57.000000 electrons
         Band energy:-485.238744;  BLOECHL correction:  0.000000
       DOS:  cpu time    0.0000: real time    0.0018
    CHARGE:  cpu time    3.2480: real time    3.2814
    MIXING:  cpu time    0.1000: real time    0.0981
    --------------------------------------------
      LOOP:  cpu time  139.8440: real time  140.6736

 eigenvalue-minimisations  :  1200
 total energy-change (2. order) : 0.1572016E-01  (-0.1057891E-01)
 number of electron      56.9999994 magnetization       5.3695060
 augmentation part       -0.8059913 magnetization       5.2798842

 Broyden mixing:
  rms(total) = 0.12364E+00    rms(broyden)= 0.12364E+00
  rms(prec ) = 0.12972E+00
  weight for this iteration     100.00

 eigenvalues of (default mixing * dielectric matrix)
  average eigenvalue GAMMA=   0.9200
  2.0691  1.1344  1.1344  1.1825  1.1825  0.6488  0.6488  0.5293  0.3546  0.3153

 Free energy of the ion-electron system (eV)
  ---------------------------------------------------
  alpha Z        PSCENC =        20.97303478
  Ewald energy   TEWEN  =      6221.61188061
  -Hartree energ DENC   =     -8424.19162983
  -exchange      EXHF   =         0.00000000
  -V(xc)+E(xc)   XCENC  =        26.65891643
  PAW double counting   =      1130.70979324    -1044.11212238
  entropy T*S    EENTRO =         0.00000000
  eigenvalues    EBANDS =      -485.23874392
  atomic energy  EATOM  =      2505.77835381
  Solvation  Ediel_sol  =         0.00000000
  ---------------------------------------------------
  free energy    TOTEN  =       -47.81051725 eV

  energy without entropy =      -47.81051725  energy(sigma->0) =      -47.81051725


--------------------------------------------------------------------------------------------------------




--------------------------------------- Iteration      1(  16)  ---------------------------------------


    POTLOK:  cpu time  102.4240: real time  102.9740
    SETDIJ:  cpu time    0.0560: real time    0.0551
     EDDAV:  cpu time   32.9320: real time   33.2419
 BZINTS: Fermi energy: -4.196031; 57.000000 electrons
         Band energy:-486.023597;  BLOECHL correction:  0.000000
       DOS:  cpu time    0.0040: real time    0.0033
    CHARGE:  cpu time    3.1440: real time    3.1664
    MIXING:  cpu time    0.0840: real time    0.0851
    --------------------------------------------
      LOOP:  cpu time  138.6440: real time  139.5258

 eigenvalue-minimisations  :  1224
 total energy-change (2. order) :-0.1538353E-01  (-0.4359371E-02)
 number of electron      56.9999994 magnetization       5.3322523
 augmentation part       -0.9164569 magnetization       5.1622572

 Broyden mixing:
  rms(total) = 0.69091E-01    rms(broyden)= 0.69091E-01
  rms(prec ) = 0.69741E-01
  weight for this iteration     100.00

 eigenvalues of (default mixing * dielectric matrix)
  average eigenvalue GAMMA=   1.0001
  2.5241  1.3573  1.3573  1.1715  1.1715  0.7966  0.7966  0.5942  0.5624  0.3545
  0.3153

 Free energy of the ion-electron system (eV)
  ---------------------------------------------------
  alpha Z        PSCENC =        20.97303478
  Ewald energy   TEWEN  =      6221.61188061
  -Hartree energ DENC   =     -8423.15794349
  -exchange      EXHF   =         0.00000000
  -V(xc)+E(xc)   XCENC  =        26.32156983
  PAW double counting   =      1129.26064251    -1042.58984168
  entropy T*S    EENTRO =         0.00000000
  eigenvalues    EBANDS =      -486.02359715
  atomic energy  EATOM  =      2505.77835381
  Solvation  Ediel_sol  =         0.00000000
  ---------------------------------------------------
  free energy    TOTEN  =       -47.82590078 eV

  energy without entropy =      -47.82590078  energy(sigma->0) =      -47.82590078


--------------------------------------------------------------------------------------------------------




--------------------------------------- Iteration      1(  17)  ---------------------------------------


    POTLOK:  cpu time  103.0440: real time  103.4980
    SETDIJ:  cpu time    0.0520: real time    0.0510
     EDDAV:  cpu time   31.4120: real time   31.6565
 BZINTS: Fermi energy: -4.158504; 57.000000 electrons
         Band energy:-486.519729;  BLOECHL correction:  0.000000
       DOS:  cpu time    0.0000: real time    0.0025
    CHARGE:  cpu time    3.1560: real time    3.1612
    MIXING:  cpu time    0.1040: real time    0.1026
    --------------------------------------------
      LOOP:  cpu time  137.7680: real time  138.4718

 eigenvalue-minimisations  :  1184
 total energy-change (2. order) :-0.1775980E-01  (-0.2620221E-02)
 number of electron      56.9999994 magnetization       5.3075396
 augmentation part       -0.9350116 magnetization       5.0969680

 Broyden mixing:
  rms(total) = 0.27717E-01    rms(broyden)= 0.27716E-01
  rms(prec ) = 0.28610E-01
  weight for this iteration     100.00

 eigenvalues of (default mixing * dielectric matrix)
  average eigenvalue GAMMA=   1.0183
  2.7331  1.4244  1.4244  1.2031  1.2031  0.8781  0.8781  0.6322  0.6322  0.5411
  0.3545  0.3153

 Free energy of the ion-electron system (eV)
  ---------------------------------------------------
  alpha Z        PSCENC =        20.97303478
  Ewald energy   TEWEN  =      6221.61188061
  -Hartree energ DENC   =     -8422.44378020
  -exchange      EXHF   =         0.00000000
  -V(xc)+E(xc)   XCENC  =        26.05122964
  PAW double counting   =      1128.22556707    -1041.52021764
  entropy T*S    EENTRO =         0.00000000
  eigenvalues    EBANDS =      -486.51972866
  atomic energy  EATOM  =      2505.77835381
  Solvation  Ediel_sol  =         0.00000000
  ---------------------------------------------------
  free energy    TOTEN  =       -47.84366059 eV

  energy without entropy =      -47.84366059  energy(sigma->0) =      -47.84366059


--------------------------------------------------------------------------------------------------------




--------------------------------------- Iteration      1(  18)  ---------------------------------------


    POTLOK:  cpu time  103.1680: real time  103.9172
    SETDIJ:  cpu time    0.0560: real time    0.0532
     EDDAV:  cpu time   24.1800: real time   24.2931
 BZINTS: Fermi energy: -4.158166; 57.000000 electrons
         Band energy:-486.432997;  BLOECHL correction:  0.000000
       DOS:  cpu time    0.0000: real time    0.0027
    CHARGE:  cpu time    3.1960: real time    3.2252
    MIXING:  cpu time    0.1040: real time    0.1050
    --------------------------------------------
      LOOP:  cpu time  130.7040: real time  131.5965

 eigenvalue-minimisations  :  1000
 total energy-change (2. order) :-0.1847053E-02  (-0.5806920E-03)
 number of electron      56.9999994 magnetization       5.2529645
 augmentation part       -0.9286427 magnetization       5.0402473

 Broyden mixing:
  rms(total) = 0.26533E-01    rms(broyden)= 0.26533E-01
  rms(prec ) = 0.27058E-01
  weight for this iteration     100.00

 eigenvalues of (default mixing * dielectric matrix)
  average eigenvalue GAMMA=   1.0300
  2.5408  1.1843  1.1843  1.4433  1.4433  1.3160  0.8454  0.8454  0.7240  0.6455
  0.5480  0.3545  0.3154

 Free energy of the ion-electron system (eV)
  ---------------------------------------------------
  alpha Z        PSCENC =        20.97303478
  Ewald energy   TEWEN  =      6221.61188061
  -Hartree energ DENC   =     -8422.50726342
  -exchange      EXHF   =         0.00000000
  -V(xc)+E(xc)   XCENC  =        26.03491883
  PAW double counting   =      1128.35008507    -1041.65352003
  entropy T*S    EENTRO =         0.00000000
  eigenvalues    EBANDS =      -486.43299729
  atomic energy  EATOM  =      2505.77835381
  Solvation  Ediel_sol  =         0.00000000
  ---------------------------------------------------
  free energy    TOTEN  =       -47.84550764 eV

  energy without entropy =      -47.84550764  energy(sigma->0) =      -47.84550764


--------------------------------------------------------------------------------------------------------




--------------------------------------- Iteration      1(  19)  ---------------------------------------


    POTLOK:  cpu time  103.6080: real time  103.9490
    SETDIJ:  cpu time    0.0520: real time    0.0514
     EDDAV:  cpu time   27.8400: real time   27.9317
 BZINTS: Fermi energy: -4.157250; 57.000000 electrons
         Band energy:-486.326287;  BLOECHL correction:  0.000000
       DOS:  cpu time    0.0000: real time    0.0018
    CHARGE:  cpu time    3.3320: real time    3.3348
    MIXING:  cpu time    0.1120: real time    0.1132
    --------------------------------------------
      LOOP:  cpu time  134.9440: real time  135.3819

 eigenvalue-minimisations  :  1192
 total energy-change (2. order) :-0.1372525E-02  (-0.1265676E-03)
 number of electron      56.9999994 magnetization       5.1825625
 augmentation part       -0.9309767 magnetization       4.9618846

 Broyden mixing:
  rms(total) = 0.23682E-01    rms(broyden)= 0.23682E-01
  rms(prec ) = 0.24146E-01
  weight for this iteration     100.00

 eigenvalues of (default mixing * dielectric matrix)
  average eigenvalue GAMMA=   1.0601
  2.5627  2.0435  1.4147  1.4147  1.1797  1.1797  0.9095  0.9095  0.6959  0.6959
  0.5479  0.6181  0.3545  0.3154

 Free energy of the ion-electron system (eV)
  ---------------------------------------------------
  alpha Z        PSCENC =        20.97303478
  Ewald energy   TEWEN  =      6221.61188061
  -Hartree energ DENC   =     -8422.55964195
  -exchange      EXHF   =         0.00000000
  -V(xc)+E(xc)   XCENC  =        25.98617152
  PAW double counting   =      1128.41660000    -1041.72699179
  entropy T*S    EENTRO =         0.00000000
  eigenvalues    EBANDS =      -486.32628714
  atomic energy  EATOM  =      2505.77835381
  Solvation  Ediel_sol  =         0.00000000
  ---------------------------------------------------
  free energy    TOTEN  =       -47.84688016 eV

  energy without entropy =      -47.84688016  energy(sigma->0) =      -47.84688016


--------------------------------------------------------------------------------------------------------




--------------------------------------- Iteration      1(  20)  ---------------------------------------


    POTLOK:  cpu time  104.3160: real time  104.7894
    SETDIJ:  cpu time    0.0560: real time    0.0543
     EDDAV:  cpu time   23.8240: real time   23.9218
 BZINTS: Fermi energy: -4.157227; 57.000000 electrons
         Band energy:-486.279029;  BLOECHL correction:  0.000000
       DOS:  cpu time    0.0040: real time    0.0022
    CHARGE:  cpu time    2.1040: real time    2.1078
    MIXING:  cpu time    0.0720: real time    0.0751
    --------------------------------------------
      LOOP:  cpu time  130.3760: real time  130.9506

 eigenvalue-minimisations  :   992
 total energy-change (2. order) :-0.9339996E-03  (-0.4519288E-04)
 number of electron      56.9999994 magnetization       5.0800567
 augmentation part       -0.9288299 magnetization       4.8602431

 Broyden mixing:
  rms(total) = 0.15517E-01    rms(broyden)= 0.15517E-01
  rms(prec ) = 0.15986E-01
  weight for this iteration     100.00

 eigenvalues of (default mixing * dielectric matrix)
  average eigenvalue GAMMA=   1.1900
  4.0794  2.4193  1.1901  1.1901  1.4265  1.4265  1.0546  1.0546  0.3545  0.3154
  0.7582  0.7582  0.5464  0.6381  0.6381

 Free energy of the ion-electron system (eV)
  ---------------------------------------------------
  alpha Z        PSCENC =        20.97303478
  Ewald energy   TEWEN  =      6221.61188061
  -Hartree energ DENC   =     -8422.59991117
  -exchange      EXHF   =         0.00000000
  -V(xc)+E(xc)   XCENC  =        25.97768595
  PAW double counting   =      1128.42539941    -1041.73522849
  entropy T*S    EENTRO =         0.00000000
  eigenvalues    EBANDS =      -486.27902906
  atomic energy  EATOM  =      2505.77835381
  Solvation  Ediel_sol  =         0.00000000
  ---------------------------------------------------
  free energy    TOTEN  =       -47.84781416 eV

  energy without entropy =      -47.84781416  energy(sigma->0) =      -47.84781416


--------------------------------------------------------------------------------------------------------




--------------------------------------- Iteration      1(  21)  ---------------------------------------


    POTLOK:  cpu time  103.4000: real time  103.6766
    SETDIJ:  cpu time    0.0600: real time    0.0589
     EDDAV:  cpu time   26.2560: real time   26.4082
 BZINTS: Fermi energy: -4.154431; 57.000000 electrons
         Band energy:-486.257125;  BLOECHL correction:  0.000000
       DOS:  cpu time    0.0000: real time    0.0017
    CHARGE:  cpu time    2.0720: real time    2.0979
    MIXING:  cpu time    0.0840: real time    0.0841
    --------------------------------------------
      LOOP:  cpu time  131.8720: real time  132.3274

 eigenvalue-minimisations  :  1112
 total energy-change (2. order) :-0.1145017E-02  (-0.1001154E-03)
 number of electron      56.9999994 magnetization       5.0199380
 augmentation part       -0.9241379 magnetization       4.8038394

 Broyden mixing:
  rms(total) = 0.58536E-02    rms(broyden)= 0.58536E-02
  rms(prec ) = 0.61097E-02
  weight for this iteration     100.00

 eigenvalues of (default mixing * dielectric matrix)
  average eigenvalue GAMMA=   1.3150
  6.0623  2.4860  1.1913  1.1913  1.4289  1.4289  1.2323  0.9855  0.9855  0.3545
  0.3154  0.8308  0.5470  0.6853  0.6853  0.6296

 Free energy of the ion-electron system (eV)
  ---------------------------------------------------
  alpha Z        PSCENC =        20.97303478
  Ewald energy   TEWEN  =      6221.61188061
  -Hartree energ DENC   =     -8422.62222531
  -exchange      EXHF   =         0.00000000
  -V(xc)+E(xc)   XCENC  =        25.97692363
  PAW double counting   =      1128.37001434    -1041.67981605
  entropy T*S    EENTRO =         0.00000000
  eigenvalues    EBANDS =      -486.25712499
  atomic energy  EATOM  =      2505.77835381
  Solvation  Ediel_sol  =         0.00000000
  ---------------------------------------------------
  free energy    TOTEN  =       -47.84895918 eV

  energy without entropy =      -47.84895918  energy(sigma->0) =      -47.84895918


--------------------------------------------------------------------------------------------------------




--------------------------------------- Iteration      1(  22)  ---------------------------------------


    POTLOK:  cpu time  102.5880: real time  103.5285
    SETDIJ:  cpu time    0.0560: real time    0.0585
     EDDAV:  cpu time   23.3240: real time   23.6475
 BZINTS: Fermi energy: -4.154261; 57.000000 electrons
         Band energy:-486.324723;  BLOECHL correction:  0.000000
       DOS:  cpu time    0.0000: real time    0.0017
    CHARGE:  cpu time    1.9520: real time    1.9824
    MIXING:  cpu time    0.0720: real time    0.0718
    --------------------------------------------
      LOOP:  cpu time  127.9920: real time  129.2905

 eigenvalue-minimisations  :   984
 total energy-change (2. order) :-0.2540963E-03  (-0.5120681E-04)
 number of electron      56.9999994 magnetization       5.0085065
 augmentation part       -0.9234043 magnetization       4.7949329

 Broyden mixing:
  rms(total) = 0.20750E-02    rms(broyden)= 0.20749E-02
  rms(prec ) = 0.22471E-02
  weight for this iteration     100.00

 eigenvalues of (default mixing * dielectric matrix)
  average eigenvalue GAMMA=   1.3676
  7.0183  2.5332  1.1916  1.1916  1.4270  1.4270  1.5728  1.0577  1.0577  0.3545
  0.3154  0.7771  0.7771  0.5471  0.6890  0.6890  0.6227

 Free energy of the ion-electron system (eV)
  ---------------------------------------------------
  alpha Z        PSCENC =        20.97303478
  Ewald energy   TEWEN  =      6221.61188061
  -Hartree energ DENC   =     -8422.56489798
  -exchange      EXHF   =         0.00000000
  -V(xc)+E(xc)   XCENC  =        25.98304041
  PAW double counting   =      1128.27577830    -1041.58168043
  entropy T*S    EENTRO =         0.00000000
  eigenvalues    EBANDS =      -486.32472278
  atomic energy  EATOM  =      2505.77835381
  Solvation  Ediel_sol  =         0.00000000
[...]
     18      -5.7061      1.00000
     19      -5.6141      1.00000
     20      -5.1758      1.00000
     21      -5.1515      1.00000
     22      -4.7143      1.00000
     23      -4.5247      1.00000
     24      -4.2346      1.00000
     25      -3.9863      1.00000
     26      -2.3937      1.06142
     27      -1.4746      0.00000
     28      -1.3534      0.00000
     29      -1.3231      0.00000
     30      -0.8251      0.00000
     31      -0.6740      0.00000
     32      -0.6482      0.00000
     33      -0.3144      0.00000
     34      -0.1416      0.00000
     35      -0.0897      0.00000
     36       0.2459      0.00000
     37       0.4691      0.00000
     38       0.9851      0.00000
     39       0.9947      0.00000
     40       1.6821      0.00000

 k-point     5 :      -0.4000    0.2000    0.0000
  band No.  band energies     occupation 
      1     -17.5315      1.00000
      2     -16.2097      1.00000
      3     -16.0048      1.00000
      4     -15.8905      1.00000
      5     -15.5223      1.00000
      6     -15.3476      1.00000
      7     -12.1698      1.00000
      8     -10.4693      1.00000
      9      -8.4316      1.00000
     10      -8.0015      1.00000
     11      -7.6685      1.00000
     12      -7.2123      1.00000
     13      -6.9229      1.00000
     14      -6.4165      1.00000
     15      -6.1043      1.00000
     16      -6.0746      1.00000
     17      -5.9163      1.00000
     18      -5.5439      1.00000
     19      -5.5055      1.00000
     20      -5.2913      1.00000
     21      -5.1162      1.00000
     22      -4.5803      1.00000
     23      -4.4015      1.00000
     24      -4.3444      1.00000
     25      -4.0689      1.00000
     26      -2.7747      1.00000
     27      -1.6649      0.00000
     28      -1.5529      0.00000
     29      -1.4044      0.00000
     30      -0.7939      0.00000
     31      -0.6754      0.00000
     32      -0.6106      0.00000
     33      -0.4027      0.00000
     34      -0.3332      0.00000
     35       0.1783      0.00000
     36       0.2054      0.00000
     37       0.5500      0.00000
     38       0.6718      0.00000
     39       1.0559      0.00000
     40       1.7710      0.00000


--------------------------------------------------------------------------------------------------------


 soft charge-density along one line, spin component           1
         0         1         2         3         4         5         6         7         8         9
 total charge-density along one line

 soft charge-density along one line, spin component           2
         0         1         2         3         4         5         6         7         8         9
 total charge-density along one line

 pseudopotential strength for first ion, spin component:           1
 -8.771   0.083  -0.000  -0.000   0.000   0.680  -0.023   0.000
  0.083  -8.687   0.000   0.000  -0.000  -0.023   0.657  -0.000
 -0.000   0.000  -8.873   0.000   0.000   0.000  -0.000   0.708
 -0.000   0.000   0.000  -8.687  -0.083   0.000  -0.000  -0.000
  0.000  -0.000   0.000  -0.083  -8.771  -0.000   0.000  -0.000
  0.680  -0.023   0.000   0.000  -0.000   0.364   0.005  -0.000
 -0.023   0.657  -0.000  -0.000   0.000   0.005   0.369   0.000
  0.000  -0.000   0.708  -0.000  -0.000  -0.000   0.000   0.357
  0.000  -0.000  -0.000   0.657   0.023   0.000   0.000   0.000
 -0.000   0.000  -0.000   0.023   0.680   0.000   0.000   0.000
 -0.000  -0.000   0.002  -0.000   0.000  -0.000   0.000  -0.000
  0.000   0.000  -0.000   0.000  -0.000  -0.000  -0.000   0.000
 -0.000   0.001   0.000  -0.000   0.001   0.000   0.000  -0.000
 -0.000  -0.000   0.001  -0.000  -0.000   0.000   0.000   0.000
  0.001  -0.000   0.000   0.001   0.000  -0.000   0.000  -0.000
  0.000  -0.001  -0.000   0.000  -0.001  -0.000   0.000   0.000
  0.000   0.000  -0.002   0.000   0.000  -0.000  -0.000   0.000
 -0.001   0.000  -0.000  -0.001  -0.000   0.000  -0.000   0.000
 pseudopotential strength for first ion, spin component:           2
 -7.264  -0.167  -0.000   0.006   0.000   0.255   0.044   0.000
 -0.167  -7.464   0.000   0.000   0.006   0.044   0.307  -0.000
 -0.000   0.000  -7.127   0.000   0.000   0.000  -0.000   0.219
  0.006   0.000   0.000  -7.464   0.167  -0.002  -0.000  -0.000
  0.000   0.006   0.000   0.167  -7.264  -0.000  -0.002  -0.000
  0.255   0.044   0.000  -0.002  -0.000   0.480  -0.011  -0.000
  0.044   0.307  -0.000  -0.000  -0.002  -0.011   0.467   0.000
  0.000  -0.000   0.219  -0.000  -0.000  -0.000   0.000   0.489
 -0.002  -0.000  -0.000   0.307  -0.044   0.001   0.000   0.000
 -0.000  -0.002  -0.000  -0.044   0.255   0.000   0.001   0.000
 -0.000  -0.000   0.006  -0.000   0.000  -0.000   0.000  -0.001
  0.000   0.000  -0.001   0.000  -0.000  -0.000  -0.000   0.000
 -0.001   0.001   0.000  -0.000   0.001   0.000   0.000  -0.000
 -0.000  -0.000   0.003  -0.000   0.000   0.000   0.000  -0.001
  0.001  -0.000   0.000   0.001   0.001   0.000   0.000  -0.000
  0.000  -0.001  -0.000   0.000  -0.001  -0.000   0.000   0.000
  0.000   0.000  -0.003   0.000  -0.000  -0.000  -0.000   0.001
 -0.001   0.000  -0.000  -0.001  -0.000   0.000  -0.000   0.000
 total augmentation occupancy for first ion, spin component:           1
  1.004  -0.109   0.000   0.023  -0.000   0.083   0.249  -0.000  -0.016   0.000  -0.000  -0.000  -0.013   0.000   0.012  -0.000
 -0.109   0.932  -0.000  -0.000   0.023   0.247   0.337   0.000   0.000  -0.016   0.000   0.000  -0.016  -0.000  -0.005   0.001
  0.000  -0.000   1.054  -0.000  -0.000  -0.000   0.000  -0.112   0.000   0.000  -0.007  -0.014  -0.000   0.001   0.000  -0.000
  0.023  -0.000  -0.000   0.932   0.109  -0.016  -0.000   0.000   0.337  -0.247  -0.000  -0.000   0.005   0.000  -0.016  -0.000
 -0.000   0.023  -0.000   0.109   1.004  -0.000  -0.016   0.000  -0.249   0.083   0.000   0.000   0.012  -0.000   0.013  -0.000
  0.083   0.247  -0.000  -0.016  -0.000   0.234   0.118   0.000  -0.012  -0.000   0.000  -0.000   0.001  -0.000   0.021   0.000
  0.249   0.337   0.000  -0.000  -0.016   0.118   0.349   0.000  -0.000  -0.012   0.000  -0.000  -0.008   0.000  -0.005   0.001
 -0.000   0.000  -0.112   0.000   0.000   0.000   0.000   0.211   0.000  -0.000   0.048  -0.011  -0.000  -0.010   0.000   0.000
 -0.016   0.000   0.000   0.337  -0.249  -0.012  -0.000   0.000   0.349  -0.118   0.000   0.000   0.005   0.000  -0.008  -0.000
  0.000  -0.016   0.000  -0.247   0.083  -0.000  -0.012  -0.000  -0.118   0.234  -0.000   0.000   0.021   0.000  -0.001  -0.002
 -0.000   0.000  -0.007  -0.000   0.000   0.000   0.000   0.048   0.000  -0.000   1.071  -0.211  -0.000  -0.022  -0.000   0.000
 -0.000   0.000  -0.014  -0.000   0.000  -0.000  -0.000  -0.011   0.000   0.000  -0.211   0.086  -0.000   0.002  -0.000  -0.000
 -0.013  -0.016  -0.000   0.005   0.012   0.001  -0.008  -0.000   0.005   0.021  -0.000   0.000   0.242  -0.000  -0.000  -0.005
  0.000  -0.000   0.001  -0.000  -0.000  -0.000   0.000  -0.010   0.000   0.000  -0.022   0.002  -0.000   0.258   0.000   0.000
  0.012  -0.005   0.000  -0.016   0.013   0.021  -0.005   0.000  -0.008  -0.001   0.000  -0.000  -0.000   0.000   0.242  -0.000
 -0.000   0.001  -0.000  -0.000  -0.000   0.000   0.001   0.000  -0.000  -0.002   0.000  -0.000  -0.005   0.000  -0.000   0.000
  0.000   0.000   0.003  -0.000  -0.000  -0.000   0.000  -0.000   0.000   0.000   0.001  -0.000   0.000  -0.006  -0.000  -0.000
 -0.000   0.000  -0.000   0.001   0.000  -0.002   0.000  -0.000   0.001  -0.000  -0.000   0.000   0.000  -0.000  -0.005  -0.000
 total augmentation occupancy for first ion, spin component:           2
  0.652  -0.276   0.000   0.009  -0.000  -0.174   0.074  -0.000  -0.005  -0.002  -0.000  -0.000  -0.004   0.000  -0.004  -0.001
 -0.276   0.341  -0.000  -0.000   0.009   0.075  -0.096   0.000  -0.002  -0.007   0.000   0.000  -0.001   0.000   0.008   0.000
  0.000  -0.000   0.889  -0.000  -0.000  -0.000   0.000  -0.258   0.000   0.000  -0.022  -0.005  -0.000   0.009  -0.000  -0.000
  0.009  -0.000  -0.000   0.341   0.276  -0.007   0.002   0.000  -0.096  -0.075  -0.000   0.000  -0.008  -0.000  -0.001   0.000
 -0.000   0.009  -0.000   0.276   0.652   0.002  -0.005   0.000  -0.074  -0.174   0.000   0.000  -0.004  -0.000   0.004   0.001
 -0.174   0.075  -0.000  -0.007   0.002   0.005  -0.050   0.000   0.002  -0.000   0.000   0.000   0.004  -0.000  -0.005   0.000
  0.074  -0.096   0.000   0.002  -0.005  -0.050  -0.045  -0.000   0.000   0.002  -0.000  -0.000   0.002   0.000   0.001  -0.000
 -0.000   0.000  -0.258   0.000   0.000   0.000  -0.000   0.071  -0.000  -0.000   0.015   0.004   0.000  -0.002  -0.000   0.000
 -0.005  -0.002   0.000  -0.096  -0.074   0.002   0.000  -0.000  -0.045   0.050   0.000   0.000  -0.001   0.000   0.002  -0.000
 -0.002  -0.007   0.000  -0.075  -0.174  -0.000   0.002  -0.000   0.050   0.005  -0.000  -0.000  -0.005   0.000  -0.004  -0.000
 -0.000   0.000  -0.022  -0.000   0.000   0.000  -0.000   0.015   0.000  -0.000   0.136   0.059   0.000  -0.001  -0.000  -0.000
 -0.000   0.000  -0.005   0.000   0.000   0.000   0.000   0.004   0.000  -0.000   0.059  -0.023  -0.000  -0.002  -0.000  -0.000
 -0.004  -0.001  -0.000  -0.008  -0.004   0.004   0.002   0.000  -0.001  -0.005   0.000  -0.000   0.022  -0.000  -0.000   0.002
  0.000  -0.000   0.009  -0.000  -0.000  -0.000   0.000  -0.002   0.000   0.000  -0.001  -0.002  -0.000   0.019   0.000  -0.000
 -0.004   0.008  -0.000  -0.001   0.004  -0.005   0.001  -0.000   0.002  -0.004  -0.000  -0.000  -0.000   0.000   0.022   0.000
 -0.001   0.000  -0.000   0.000   0.001   0.000  -0.000   0.000  -0.000  -0.000  -0.000  -0.000   0.002  -0.000   0.000  -0.000
  0.000  -0.000   0.002   0.000  -0.000  -0.000   0.000  -0.001   0.000   0.000  -0.000   0.000  -0.000   0.002   0.000   0.000
  0.001  -0.000   0.000   0.000   0.001  -0.000   0.000   0.000  -0.000  -0.000  -0.000  -0.000  -0.000   0.000   0.002   0.000


------------------------ aborting loop because EDIFF is reached ----------------------------------------





 total charge     

# of ion       s       p       d       tot
------------------------------------------
    1        0.355   0.506   4.293   5.153
    2        0.355   0.506   4.283   5.143
    3        1.123   1.175   0.147   2.445
    4        1.046   1.370   0.000   2.416
    5        1.374   2.333   0.000   3.706
    6        1.359   2.323   0.000   3.682
    7        1.370   2.327   0.000   3.697
    8        1.367   2.350   0.000   3.717
    9        1.361   2.345   0.000   3.706
   10        1.365   2.345   0.000   3.710
--------------------------------------------------
tot         11.074  17.581   8.722  37.377



 magnetization (x)

# of ion       s       p       d       tot
------------------------------------------
    1        0.030   0.035   2.685   2.750
    2        0.030   0.035   2.683   2.749
    3        0.001   0.028  -0.000   0.028
    4       -0.026  -0.003   0.000  -0.029
    5       -0.003  -0.062   0.000  -0.065
    6       -0.002  -0.056   0.000  -0.058
    7       -0.004  -0.064   0.000  -0.069
    8        0.000  -0.060   0.000  -0.060
    9       -0.002  -0.043   0.000  -0.045
   10       -0.001  -0.055   0.000  -0.056
--------------------------------------------------
tot          0.023  -0.245   5.367   5.146

    CHARGE:  cpu time    2.0400: real time    2.0473
    FORLOC:  cpu time    0.1040: real time    0.1054
    FORNL :  cpu time    6.0840: real time    6.1088
    STRESS:  cpu time   27.5160: real time   27.9904
    FORCOR:  cpu time  103.4600: real time  104.2356
    FORHAR:  cpu time    0.4760: real time    0.4750
    MIXING:  cpu time    0.0480: real time    0.0497
    OFIELD:  cpu time    0.0000: real time    0.0000

  FORCE on cell =-STRESS in cart. coord.  units (eV):
  Direction    XX          YY          ZZ          XY          YZ          ZX
  --------------------------------------------------------------------------------------
  Alpha Z    30.51507    30.51507    30.51507
  Ewald    9649.56380  9649.56106-11367.46718    -0.00120    -0.00045    -0.00081
  Hartree  9993.54071  9993.54103 -9815.78015    -0.00004     0.00003     0.00006
  E(xc)    -215.12296  -215.12295  -214.88196     0.00000     0.00000     0.00001
  Local  -20547.26746-20547.26649 20232.34479     0.00080     0.00023     0.00043
  n-local   490.98722   492.88807   500.12739     0.90430     0.71481     0.70099
  augment   -53.34175   -53.34170   -58.05439     0.00018     0.00002     0.00002
  Kinetic   653.40182   646.32792   693.33052    -4.18744    -0.32482    -0.67615
  Fock        0.00000     0.00000     0.00000     0.00000     0.00000     0.00000
  -------------------------------------------------------------------------------------
  Total      -0.31077    -0.31077     0.13410     0.00000     0.00000     0.00000
  in kB      -0.74775    -0.74775     0.32266     0.00000     0.00000     0.00000
  external pressure =       -0.39 kB  Pullay stress =        0.00 kB


 VOLUME and BASIS-vectors are now :
 -----------------------------------------------------------------------------
  energy-cutoff  :      520.00
  volume of cell :      665.88
      direct lattice vectors                 reciprocal lattice vectors
     5.989003501 -0.000000071  0.000000000     0.166972685 -0.096401721 -0.000000000
     2.994501511  5.186628920 -0.000000000     0.000000002  0.192803458  0.000000000
     0.000000000 -0.000000000 21.436656447    -0.000000000  0.000000000  0.046649066

  length of vectors
     5.989003501  5.989003160 21.436656447     0.192803447  0.192803458  0.046649066


 FORCES acting on ions
    electron-ion (+dipol)            ewald-force                    non-local-force                 convergence-correction
 -----------------------------------------------------------------------------------------------
   -.158E-03 -.115E-03 0.364E+01   0.425E-03 0.250E-03 -.426E+01   -.138E-16 -.385E-18 0.632E+00   -.157E-06 -.108E-06 -.126E-02
   0.182E-03 0.835E-04 0.281E+01   -.410E-03 -.241E-03 -.343E+01   0.703E-17 0.135E-16 0.606E+00   -.167E-06 -.133E-06 0.114E-02
   -.370E-04 -.685E-05 0.231E+03   -.199E-03 -.111E-03 -.229E+03   0.662E-17 -.560E-17 -.221E+01   -.266E-06 -.132E-06 -.468E-02
   0.388E-04 0.325E-04 -.282E+03   0.273E-03 0.153E-03 0.279E+03   -.551E-16 0.191E-16 0.276E+01   -.184E-06 -.728E-07 -.437E-02
   0.139E+02 0.516E-02 -.455E+03   -.184E+02 0.788E-01 0.459E+03   0.444E+01 -.478E-02 -.379E+01   0.127E-01 -.780E-01 0.193E-01
   -.697E+01 -.121E+02 -.455E+03   0.925E+01 0.159E+02 0.459E+03   -.222E+01 -.384E+01 -.379E+01   -.739E-01 0.280E-01 0.193E-01
   -.698E+01 0.121E+02 -.455E+03   0.912E+01 -.159E+02 0.459E+03   -.222E+01 0.385E+01 -.379E+01   0.612E-01 0.500E-01 0.193E-01
   0.691E+01 0.144E+00 0.469E+03   -.294E+01 -.694E-01 -.473E+03   -.396E+01 0.763E-02 0.375E+01   -.234E-01 -.805E-01 -.194E-01
   -.333E+01 -.605E+01 0.469E+03   0.141E+01 0.258E+01 -.473E+03   0.199E+01 0.343E+01 0.375E+01   -.580E-01 0.606E-01 -.194E-01
   -.358E+01 0.591E+01 0.469E+03   0.153E+01 -.251E+01 -.473E+03   0.197E+01 -.343E+01 0.375E+01   0.815E-01 0.200E-01 -.194E-01
 -----------------------------------------------------------------------------------------------
   0.897E-04 0.473E-04 -.168E+01   0.226E-13 -.444E-15 0.114E-12   -.444E-15 -.444E-15 0.167E+01   -.946E-06 -.493E-06 -.969E-02


 POSITION                                       TOTAL-FORCE (eV/Angst)
 -----------------------------------------------------------------------------------
      2.99450      1.72887     10.71672        -0.000000     -0.000000      0.009254
      5.98901      3.45775     10.71994        -0.000000      0.000000     -0.013606
      0.00000     -0.00000      9.60825        -0.000000      0.000000     -0.142321
      0.00000     -0.00000     11.90767        -0.000000     -0.000000      0.057516
      3.84729      0.00044     12.22467         0.031230      0.002093     -0.012878
      1.07124      1.85457     12.22467        -0.013802     -0.028093     -0.012878
      4.06499      3.33163     12.22467        -0.017428      0.026000     -0.012878
      5.22870      5.18617      9.20218        -0.015125      0.000883      0.042598
      7.86600      3.25198      9.20218         0.008327      0.012657      0.042598
      4.87230      1.93511      9.20218         0.006798     -0.013540      0.042598
 -----------------------------------------------------------------------------------
    total drift:                                0.000089      0.000047     -0.020758


--------------------------------------------------------------------------------------------------------



  FREE ENERGIE OF THE ION-ELECTRON SYSTEM (eV)
  ---------------------------------------------------
  free  energy   TOTEN  =       -54.10325792 eV

  energy  without entropy=      -54.10325792  energy(sigma->0) =      -54.10325792

 d Force = 0.6142359E-03[ 0.233E-04, 0.121E-02]  d Energy = 0.3866837E-02-0.325E-02
 d Force = 0.2506009E+01[ 0.251E+01, 0.250E+01]  d Ewald  =-0.5046432E+02 0.530E+02


--------------------------------------------------------------------------------------------------------


    POTLOK:  cpu time  102.3280: real time  103.4551


--------------------------------------------------------------------------------------------------------




--------------------------------------------------------------------------------------------------------


  
 reached required accuracy - stopping structural energy minimisation
     LOOP+:  cpu time  908.9400: real time  915.6435
    4ORBIT:  cpu time    0.0000: real time    0.0000



 total charge     

# of ion       s       p       d       tot
------------------------------------------
    1        0.355   0.506   4.293   5.153
    2        0.355   0.506   4.283   5.143
    3        1.123   1.175   0.147   2.445
    4        1.046   1.370   0.000   2.416
    5        1.374   2.333   0.000   3.706
    6        1.359   2.323   0.000   3.682
    7        1.370   2.327   0.000   3.697
    8        1.367   2.350   0.000   3.717
    9        1.361   2.345   0.000   3.706
   10        1.365   2.345   0.000   3.710
--------------------------------------------------
tot         11.074  17.581   8.722  37.377



 magnetization (x)

# of ion       s       p       d       tot
------------------------------------------
    1        0.030   0.035   2.685   2.750
    2        0.030   0.035   2.683   2.749
    3        0.001   0.028  -0.000   0.028
    4       -0.026  -0.003   0.000  -0.029
    5       -0.003  -0.062   0.000  -0.065
    6       -0.002  -0.056   0.000  -0.058
    7       -0.004  -0.064   0.000  -0.069
    8        0.000  -0.060   0.000  -0.060
    9       -0.002  -0.043   0.000  -0.045
   10       -0.001  -0.055   0.000  -0.056
--------------------------------------------------
tot          0.023  -0.245   5.367   5.146

 BZINTS: Fermi energy: -1.886302; 57.000000 electrons
         Band energy:-468.097912;  BLOECHL correction: -0.027613

 total amount of memory used by VASP MPI-rank0   174826. kBytes
=======================================================================

   base      :      30000. kBytes
   nonlr-proj:       8666. kBytes
   fftplans  :      20284. kBytes
   grid      :      94580. kBytes
   one-center:        311. kBytes
   wavefun   :      20985. kBytes

  
  
 General timing and accounting informations for this job:
 ========================================================
  
                  Total CPU time used (sec):    21619.771
                            User time (sec):    21520.840
                          System time (sec):       98.932
                         Elapsed time (sec):    21776.110
  
                   Maximum memory used (kb):      593652.
                   Average memory used (kb):           0.
  
                          Minor page faults:     23874993
                          Major page faults:            6
                 Voluntary context switches:          906
