 vasp.5.4.4.18Apr17-6-g9f103f2a35 (build May  1 2020 15:48:39) complex           
 executed on             LinuxGNU date 2020.06.29  22:14:39
 running on   16 total cores
 distrk:  each k-point on   16 cores,    1 groups
 distr:  one band on NCORES_PER_BAND=   1 cores,   16 groups


--------------------------------------------------------------------------------------------------------


 INCAR:
 POTCAR:   PAW_PBE Co 06Sep2000                   
 POTCAR:    PAW_PBE P 17Jan2003                   
 POTCAR:    PAW_PBE S 17Jan2003                   

 ----------------------------------------------------------------------------- 
|                                                                             |
|           W    W    AA    RRRRR   N    N  II  N    N   GGGG   !!!           |
|           W    W   A  A   R    R  NN   N  II  NN   N  G    G  !!!           |
|           W    W  A    A  R    R  N N  N  II  N N  N  G       !!!           |
|           W WW W  AAAAAA  RRRRR   N  N N  II  N  N N  G  GGG   !            |
|           WW  WW  A    A  R   R   N   NN  II  N   NN  G    G                |
|           W    W  A    A  R    R  N    N  II  N    N   GGGG   !!!           |
|                                                                             |
|      For optimal performance we recommend to set                            |
|        NCORE= 4 - approx SQRT( number of cores)                             |
|      NCORE specifies how many cores store one orbital (NPAR=cpu/NCORE).     |
|      This setting can  greatly improve the performance of VASP for DFT.     |
|      The default,   NCORE=1            might be grossly inefficient         |
|      on modern multi-core architectures or massively parallel machines.     |
|      Do your own testing !!!!                                               |
|      Unfortunately you need to use the default for GW and RPA calculations. |
|      (for HF NCORE is supported but not extensively tested yet)             |
|                                                                             |
 ----------------------------------------------------------------------------- 


 ----------------------------------------------------------------------------- 
|                                                                             |
|  ADVICE TO THIS USER RUNNING 'VASP/VAMP'   (HEAR YOUR MASTER'S VOICE ...):  |
|                                                                             |
|      You have switched on vdW-DFT.                                          |
|      This routine was written and supplied by Jiri Klimes.                  |
|      We recommed that you carefully read and cite the following             |
|      publication                                                            |
|      J. Klimes, D.R. Bowler, A. Michelides                                  |
|        J. Phys.: Cond Matt. 22 022201 (2010)                                |
|      J. Klimes, D.R. Bowler, A. Michelides                                  |
|        Phys. Rev. B. 83, 195131 (2011)                                      |
|      and references therein.                                                |
|                                                                             |
 ----------------------------------------------------------------------------- 

 POTCAR:   PAW_PBE Co 06Sep2000                   
   VRHFIN =Co: d8 s1                                                            
   LEXCH  = PE                                                                  
   EATOM  =   813.5563 eV,   59.7947 Ry                                         
                                                                                
   TITEL  = PAW_PBE Co 06Sep2000                                                
   LULTRA =        F    use ultrasoft PP ?                                      
   IUNSCR =        1    unscreen: 0-lin 1-nonlin 2-no                           
   RPACOR =    2.000    partial core radius                                     
   POMASS =   58.933; ZVAL   =    9.000    mass and valenz                      
   RCORE  =    2.300    outmost cutoff radius                                   
   RWIGS  =    2.460; RWIGS  =    1.302    wigner-seitz radius (au A)           
   ENMAX  =  267.969; ENMIN  =  200.977 eV                                      
   RCLOC  =    1.697    cutoff for local pot                                    
   LCOR   =        T    correct aug charges                                     
   LPAW   =        T    paw PP                                                  
   EAUG   =  477.818                                                            
   DEXC   =    -.016                                                            
   RMAX   =    2.817    core radius for proj-oper                               
   RAUG   =    1.300    factor for augmentation sphere                          
   RDEP   =    2.393    radius for radial grids                                 
   QCUT   =   -4.438; QGAM   =    8.876    optimization parameters              
                                                                                
   Description                                                                  
     l     E      TYP  RCUT    TYP  RCUT                                        
     2   .000     23  2.300                                                     
     2   .000     23  2.300                                                     
     0   .000     23  2.300                                                     
     0   .000     23  2.300                                                     
     1  -.200     23  2.300                                                     
     1   .000     23  2.300                                                     
     3   .000      7   .000                                                     
  local pseudopotential read in
  partial core-charges read in
  atomic valenz-charges read in
  non local Contribution for L=           2  read in
    real space projection operators read in
  non local Contribution for L=           2  read in
    real space projection operators read in
  non local Contribution for L=           0  read in
    real space projection operators read in
  non local Contribution for L=           0  read in
    real space projection operators read in
  non local Contribution for L=           1  read in
    real space projection operators read in
  non local Contribution for L=           1  read in
    real space projection operators read in
    PAW grid and wavefunctions read in

   number of l-projection  operators is LMAX  =           6
   number of lm-projection operators is LMMAX =          18

 POTCAR:    PAW_PBE P 17Jan2003                   
   VRHFIN =P : s2p3                                                             
   LEXCH  = PE                                                                  
   EATOM  =   176.0430 eV,   12.9388 Ry                                         
                                                                                
   TITEL  = PAW_PBE P 17Jan2003                                                 
   LULTRA =        F    use ultrasoft PP ?                                      
   IUNSCR =        1    unscreen: 0-lin 1-nonlin 2-no                           
   RPACOR =    1.500    partial core radius                                     
   POMASS =   30.974; ZVAL   =    5.000    mass and valenz                      
   RCORE  =    1.900    outmost cutoff radius                                   
   RWIGS  =    2.330; RWIGS  =    1.233    wigner-seitz radius (au A)           
   ENMAX  =  270.000; ENMIN  =  191.280 eV                                      
   ICORE  =        2    local potential                                         
   LCOR   =        T    correct aug charges                                     
   LPAW   =        T    paw PP                                                  
   EAUG   =  342.924                                                            
   DEXC   =    -.002                                                            
   RMAX   =    2.887    core radius for proj-oper                               
   RAUG   =    1.300    factor for augmentation sphere                          
   RDEP   =    1.931    radius for radial grids                                 
   QCUT   =   -4.330; QGAM   =    8.659    optimization parameters              
                                                                                
   Description                                                                  
     l     E      TYP  RCUT    TYP  RCUT                                        
     0   .000     23  1.900                                                     
     0   .000     23  1.900                                                     
     1   .000     23  1.900                                                     
     1   .000     23  1.900                                                     
     2   .000     23  1.900                                                     
  local pseudopotential read in
  partial core-charges read in
  atomic valenz-charges read in
  non local Contribution for L=           0  read in
    real space projection operators read in
  non local Contribution for L=           0  read in
    real space projection operators read in
  non local Contribution for L=           1  read in
    real space projection operators read in
  non local Contribution for L=           1  read in
    real space projection operators read in
    PAW grid and wavefunctions read in

   number of l-projection  operators is LMAX  =           4
   number of lm-projection operators is LMMAX =           8

 POTCAR:    PAW_PBE S 17Jan2003                   
   VRHFIN =S : s2p4                                                             
   LEXCH  = PE                                                                  
   EATOM  =   276.8230 eV,   20.3459 Ry                                         
                                                                                
   TITEL  = PAW_PBE S 17Jan2003                                                 
   LULTRA =        F    use ultrasoft PP ?                                      
   IUNSCR =        1    unscreen: 0-lin 1-nonlin 2-no                           
   RPACOR =    1.500    partial core radius                                     
   POMASS =   32.066; ZVAL   =    6.000    mass and valenz                      
   RCORE  =    1.900    outmost cutoff radius                                   
   RWIGS  =    2.200; RWIGS  =    1.164    wigner-seitz radius (au A)           
   ENMAX  =  280.000; ENMIN  =  194.016 eV                                      
   ICORE  =        2    local potential                                         
   LCOR   =        T    correct aug charges                                     
   LPAW   =        T    paw PP                                                  
   EAUG   =  335.092                                                            
   DEXC   =     .000                                                            
   RMAX   =    2.867    core radius for proj-oper                               
   RAUG   =    1.300    factor for augmentation sphere                          
   RDEP   =    1.954    radius for radial grids                                 
   QCUT   =   -4.360; QGAM   =    8.721    optimization parameters              
                                                                                
   Description                                                                  
     l     E      TYP  RCUT    TYP  RCUT                                        
     0   .000     23  1.900                                                     
     0   .000     23  1.900                                                     
     1   .000     23  1.900                                                     
     1   .000     23  1.900                                                     
     2   .000     23  1.900                                                     
  local pseudopotential read in
  partial core-charges read in
  atomic valenz-charges read in
  non local Contribution for L=           0  read in
    real space projection operators read in
  non local Contribution for L=           0  read in
    real space projection operators read in
  non local Contribution for L=           1  read in
    real space projection operators read in
  non local Contribution for L=           1  read in
    real space projection operators read in
    PAW grid and wavefunctions read in

   number of l-projection  operators is LMAX  =           4
   number of lm-projection operators is LMMAX =           8

 Optimization of the real space projectors (new method)

 maximal supplied QI-value         = 16.25
 optimisation between [QCUT,QGAM] = [ 11.54, 23.24] = [ 37.28,151.24] Ry 
 Optimized for a Real-space Cutoff    1.53 Angstroem

   l    n(q)    QCUT    max X(q) W(low)/X(q) W(high)/X(q)  e(spline) 
   2     10    11.539     4.599    0.83E-05    0.15E-04    0.45E-07
   2     10    11.539    18.158    0.10E-03    0.14E-03    0.24E-06
   0     11    11.539    15.740    0.19E-04    0.12E-05    0.17E-07
   0     11    11.539    47.662    0.48E-04    0.15E-04    0.31E-06
   1     10    11.539     5.777    0.11E-04    0.46E-05    0.25E-07
   1     10    11.539     8.007    0.46E-04    0.29E-04    0.11E-06
 Optimization of the real space projectors (new method)

 maximal supplied QI-value         = 19.84
 optimisation between [QCUT,QGAM] = [ 11.51, 23.22] = [ 37.09,150.92] Ry 
 Optimized for a Real-space Cutoff    1.21 Angstroem

   l    n(q)    QCUT    max X(q) W(low)/X(q) W(high)/X(q)  e(spline) 
   0      8    11.508     6.651    0.19E-04    0.31E-05    0.49E-08
   0      8    11.508    90.285    0.95E-04    0.17E-03    0.51E-07
   1      8    11.508     4.328    0.14E-04    0.32E-04    0.22E-07
   1      8    11.508    54.583    0.16E-03    0.71E-04    0.89E-07
 Optimization of the real space projectors (new method)

 maximal supplied QI-value         = 19.84
 optimisation between [QCUT,QGAM] = [ 11.51, 23.22] = [ 37.09,150.92] Ry 
 Optimized for a Real-space Cutoff    1.21 Angstroem

   l    n(q)    QCUT    max X(q) W(low)/X(q) W(high)/X(q)  e(spline) 
   0      8    11.508     5.487    0.18E-04    0.22E-05    0.47E-08
   0      8    11.508    85.627    0.96E-04    0.18E-03    0.54E-07
   1      8    11.508     3.530    0.17E-04    0.28E-04    0.21E-07
   1      8    11.508    42.714    0.18E-03    0.63E-04    0.92E-07

 ----------------------------------------------------------------------------- 
|                                                                             |
|  ADVICE TO THIS USER RUNNING 'VASP/VAMP'   (HEAR YOUR MASTER'S VOICE ...):  |
|                                                                             |
|      You enforced a specific xc-type in the INCAR file,                     |
|      a different type was found on the POTCAR file                          |
|          I HOPE YOU KNOW, WHAT YOU ARE  DOING                               |
|                                                                             |
 ----------------------------------------------------------------------------- 

 PAW_PBE Co 06Sep2000                   :
 energy of atom  1       EATOM= -813.5563
 kinetic energy error for atom=    0.0028 (will be added to EATOM!!)
  PAW_PBE P 17Jan2003                   :
 energy of atom  2       EATOM= -176.0430
 kinetic energy error for atom=    0.0011 (will be added to EATOM!!)
  PAW_PBE S 17Jan2003                   :
 energy of atom  3       EATOM= -276.8230
 kinetic energy error for atom=    0.0016 (will be added to EATOM!!)


 POSCAR: Co2 P2 S6                               
  positions in direct lattice
  velocities in cartesian coordinates
  No initial velocities read in
 exchange correlation table for  LEXCH =       42
   RHO(1)=    0.500       N(1)  =     2000
   RHO(2)=  100.500       N(2)  =     4000



--------------------------------------------------------------------------------------------------------


 ion  position               nearest neighbor table
   1  0.333  0.333  0.500-   6 2.78   5 2.78   7 2.78   8 2.78  10 2.78   9 2.78
   2  0.667  0.667  0.500-   9 2.78   8 2.78  10 2.78   5 2.78   7 2.78   6 2.78
   3  0.000  0.000  0.448-   4 2.43   8 2.63  10 2.63   9 2.63
   4  0.000  0.000  0.552-   3 2.43   5 2.63   7 2.63   6 2.63
   5  0.626  0.000  0.574-   4 2.63   1 2.78   2 2.78
   6  0.000  0.373  0.574-   4 2.63   1 2.78   2 2.78
   7  0.373  0.626  0.574-   4 2.63   1 2.78   2 2.78
   8  0.374  1.000  0.426-   3 2.63   2 2.78   1 2.78
   9  1.000  0.627  0.426-   3 2.63   2 2.78   1 2.78
  10  0.627  0.374  0.426-   3 2.63   2 2.78   1 2.78

  LATTYP: Found a hexagonal cell.
 ALAT       =     6.9077769333
 C/A-ratio  =     3.3939410937
  
  Lattice vectors:
  
 A1 = (   3.4538890000,  -5.9823100000,   0.0000000000)
 A2 = (  -6.9077770000,   0.0000000000,   0.0000000000)
 A3 = (   0.0000000000,   0.0000000000, -23.4445880000)


Analysis of symmetry for initial positions (statically):
=====================================================================
 Subroutine PRICEL returns:
 Original cell was already a primitive cell.
 

 Routine SETGRP: Setting up the symmetry group for a 
 hexagonal supercell.


 Subroutine GETGRP returns: Found  6 space group operations
 (whereof  6 operations were pure point group operations)
 out of a pool of 24 trial point group operations.


The static configuration has the point symmetry S_6 .


Analysis of symmetry for dynamics (positions and initial velocities):
=====================================================================
 Subroutine PRICEL returns:
 Original cell was already a primitive cell.
 

 Routine SETGRP: Setting up the symmetry group for a 
 hexagonal supercell.


 Subroutine GETGRP returns: Found  6 space group operations
 (whereof  6 operations were pure point group operations)
 out of a pool of 24 trial point group operations.


The dynamic configuration has the point symmetry S_6 .


Analysis of constrained symmetry for selective dynamics:
=====================================================================
 Subroutine PRICEL returns:
 Original cell was already a primitive cell.
 

 Routine SETGRP: Setting up the symmetry group for a 
 hexagonal supercell.


 Subroutine GETGRP returns: Found  6 space group operations
 (whereof  6 operations were pure point group operations)
 out of a pool of 24 trial point group operations.


The constrained configuration has the point symmetry S_6 .


Analysis of structural, dynamic, and magnetic symmetry:
=====================================================================
 Subroutine PRICEL returns:
 Original cell was already a primitive cell.
 

 Routine SETGRP: Setting up the symmetry group for a 
 hexagonal supercell.


 Subroutine GETGRP returns: Found  6 space group operations
 (whereof  6 operations were pure point group operations)
 out of a pool of 24 trial point group operations.


The magnetic configuration has the point symmetry S_6 .


 Subroutine INISYM returns: Found  6 space group operations
 (whereof  6 operations are pure point group operations),
 and found     1 'primitive' translations



 KPOINTS: Kpoints from vasprun.xml                

Automatic generation of k-mesh.
Space group operators:
 irot       det(A)        alpha          n_x          n_y          n_z        tau_x        tau_y        tau_z
    1     1.000000     0.000000     1.000000     0.000000     0.000000     0.000000     0.000000     0.000000
    2    -1.000000     0.000000     1.000000     0.000000     0.000000     0.000000     0.000000     0.000000
    3     1.000000   120.000000     0.000000     0.000000     1.000000     0.000000     0.000000     0.000000
    4    -1.000000   120.000000     0.000000     0.000000     1.000000     0.000000     0.000000     0.000000
    5     1.000000   120.000000     0.000000     0.000000    -1.000000     0.000000     0.000000     0.000000
    6    -1.000000   120.000000     0.000000     0.000000    -1.000000     0.000000     0.000000     0.000000
 
 Subroutine IBZKPT returns following result:
 ===========================================
 
 Found      5 irreducible k-points:
 
 Following reciprocal coordinates:
            Coordinates               Weight
  0.000000  0.000000  0.000000      1.000000
  0.200000  0.000000  0.000000      6.000000
  0.400000  0.000000  0.000000      6.000000
  0.400000  0.200000  0.000000      6.000000
 -0.400000  0.200000  0.000000      6.000000
 
 Following cartesian coordinates:
            Coordinates               Weight
  0.000000  0.000000  0.000000      1.000000
  0.028953 -0.016716  0.000000      6.000000
  0.057906 -0.033432  0.000000      6.000000
  0.057906  0.000000  0.000000      6.000000
 -0.057906  0.066864  0.000000      6.000000
 
 TETIRR: Found     15 inequivalent tetrahedra from      150


--------------------------------------------------------------------------------------------------------




 Dimension of arrays:
   k-points           NKPTS =      5   k-points in BZ     NKDIM =      5   number of bands    NBANDS=     48
   number of dos      NEDOS =    301   number of ions     NIONS =     10
   non local maximal  LDIM  =      6   non local SUM 2l+1 LMDIM =     18
   total plane-waves  NPLWV = 524880
   max r-space proj   IRMAX =   8238   max aug-charges    IRDMAX=  21564
   dimension x,y,z NGX =    54 NGY =   54 NGZ =  180
   dimension x,y,z NGXF=   108 NGYF=  108 NGZF=  360
   support grid    NGXF=   108 NGYF=  108 NGZF=  360
   ions per type =               2   2   6
   NGX,Y,Z   is equivalent  to a cutoff of  13.00, 13.00, 12.76 a.u.
   NGXF,Y,Z  is equivalent  to a cutoff of  25.99, 25.99, 25.53 a.u.

 SYSTEM =  unknown system                          
 POSCAR =  Co2 P2 S6                               

 Startparameter for this run:
   NWRITE =      2    write-flag & timer
   PREC   = accura    normal or accurate (medium, high low for compatibility)
   ISTART =      0    job   : 0-new  1-cont  2-samecut
   ICHARG =      2    charge: 1-file 2-atom 10-const
   ISPIN  =      2    spin polarized calculation?
   LNONCOLLINEAR =      F non collinear calculations
   LSORBIT =      F    spin-orbit coupling
   INIWAV =      1    electr: 0-lowe 1-rand  2-diag
   LASPH  =      F    aspherical Exc in radial PAW
   METAGGA=      F    non-selfconsistent MetaGGA calc.

 Electronic Relaxation 1
   ENCUT  =  520.0 eV  38.22 Ry    6.18 a.u.  12.84 12.84 43.59*2*pi/ulx,y,z
   ENINI  =  520.0     initial cutoff
   ENAUG  =  477.8 eV  augmentation charge cutoff
   NELM   =    400;   NELMIN=  2; NELMDL=  0     # of ELM steps 
   EDIFF  = 0.1E-03   stopping-criterion for ELM
   LREAL  =      T    real-space projection
   NLSPLINE    = F    spline interpolate recip. space projectors
   LCOMPAT=      F    compatible to vasp.4.4
   GGA_COMPAT  = T    GGA compatible to vasp.4.4-vasp.4.6
   LMAXPAW     = -100 max onsite density
   LMAXMIX     =    2 max onsite mixed and CHGCAR
   VOSKOWN=      0    Vosko Wilk Nusair interpolation
   ROPT   =   -0.00025  -0.00025  -0.00025
 Ionic relaxation
   EDIFFG = 0.1E-02   stopping-criterion for IOM
   NSW    =     99    number of steps for IOM
   NBLOCK =      1;   KBLOCK =     99    inner block; outer block 
   IBRION =      2    ionic relax: 0-MD 1-quasi-New 2-CG
   NFREE  =      1    steps in history (QN), initial steepest desc. (CG)
   ISIF   =      3    stress and relaxation
   IWAVPR =     11    prediction:  0-non 1-charg 2-wave 3-comb
   ISYM   =      2    0-nonsym 1-usesym 2-fastsym
   LCORR  =      T    Harris-Foulkes like correction to forces

   POTIM  = 0.5000    time-step for ionic-motion
   TEIN   =    0.0    initial temperature
   TEBEG  =    0.0;   TEEND  =   0.0 temperature during run
   SMASS  =  -3.00    Nose mass-parameter (am)
   estimated Nose-frequenzy (Omega)   =  0.10E-29 period in steps =****** mass=  -0.109E-26a.u.
   SCALEE = 1.0000    scale energy and forces
   NPACO  =    256;   APACO  = 16.0  distance and # of slots for P.C.
   PSTRESS=    0.0 pullay stress

  Mass of Ions in am
   POMASS =  58.93 30.97 32.07
  Ionic Valenz
   ZVAL   =   9.00  5.00  6.00
  Atomic Wigner-Seitz radii
   RWIGS  =  -1.00 -1.00 -1.00
  virtual crystal weights 
   VCA    =   1.00  1.00  1.00
   NELECT =      64.0000    total number of electrons
   NUPDOWN=      -1.0000    fix difference up-down

 DOS related values:
   EMIN   =  10.00;   EMAX   =-10.00  energy-range for DOS
   EFERMI =   0.00
   ISMEAR =    -5;   SIGMA  =   0.05  broadening in eV -4-tet -1-fermi 0-gaus

 Electronic relaxation 2 (details)
   IALGO  =     38    algorithm
   LDIAG  =      T    sub-space diagonalisation (order eigenvalues)
   LSUBROT=      F    optimize rotation matrix (better conditioning)
   TURBO    =      0    0=normal 1=particle mesh
   IRESTART =      0    0=no restart 2=restart with 2 vectors
   NREBOOT  =      0    no. of reboots
   NMIN     =      0    reboot dimension
   EREF     =   0.00    reference energy to select bands
   IMIX   =      4    mixing-type and parameters
     AMIX     =   0.40;   BMIX     =  1.00
     AMIX_MAG =   1.60;   BMIX_MAG =  1.00
     AMIN     =   0.01
     WC   =   100.;   INIMIX=   1;  MIXPRE=   1;  MAXMIX= -45

 Intra band minimization:
   WEIMIN = 0.0010     energy-eigenvalue tresh-hold
   EBREAK =  0.52E-06  absolut break condition
   DEPER  =   0.30     relativ break condition  

   TIME   =   0.40     timestep for ELM

  volume/ion in A,a.u.               =      96.88       653.80
  Fermi-wavevector in a.u.,A,eV,Ry     =   0.661787  1.250596  5.958835  0.437962
  Thomas-Fermi vector in A             =   1.734655

 Write flags
   LWAVE        =      F    write WAVECAR
   LDOWNSAMPLE  =      F    k-point downsampling of WAVECAR
   LCHARG       =      T    write CHGCAR
   LVTOT        =      F    write LOCPOT, total local potential
   LVHAR        =      F    write LOCPOT, Hartree potential only
   LELF         =      F    write electronic localiz. function (ELF)
   LORBIT       =     11    0 simple, 1 ext, 2 COOP (PROOUT), +10 PAW based schemes


 Dipole corrections
   LMONO  =      F    monopole corrections only (constant potential shift)
   LDIPOL =      F    correct potential (dipole corrections)
   IDIPOL =      0    1-x, 2-y, 3-z, 4-all directions 
   EPSILON=  1.0000000 bulk dielectric constant

 Exchange correlation treatment:
   GGA     =    BO    GGA type
   LEXCH   =    42    internal setting for exchange type
   VOSKOWN=      0    Vosko Wilk Nusair interpolation
   LHFCALC =     F    Hartree Fock is set to
   LHFONE  =     F    Hartree Fock one center treatment
   AEXX    =    0.0000 exact exchange contribution

 vdW DFT:
   LUSE_VDW   =     T    switch on vdW DFT
   Zab_VDW    =-.8491    correlation parameter
   PARAM1     =0.1833
   PARAM2     =0.2200
   PARAM3     =0.0000
   -- rVV10 --
   BPARAM     = 6.3000
   CPARAM     = 0.0093

 Linear response parameters
   LEPSILON=     F    determine dielectric tensor
   LRPA    =     F    only Hartree local field effects (RPA)
   LNABLA  =     F    use nabla operator in PAW spheres
   LVEL    =     F    velocity operator in full k-point grid
   LINTERFAST=   F  fast interpolation
   KINTER  =     0    interpolate to denser k-point grid
   CSHIFT  =0.1000    complex shift for real part using Kramers Kronig
   OMEGAMAX=  -1.0    maximum frequency
   DEG_THRESHOLD= 0.2000000E-02 threshold for treating states as degnerate
   RTIME   =   -0.100 relaxation time in fs
  (WPLASMAI=    0.000 imaginary part of plasma frequency in eV, 0.658/RTIME)
   DFIELD  = 0.0000000 0.0000000 0.0000000 field for delta impulse in time

 Orbital magnetization related:
   ORBITALMAG=     F  switch on orbital magnetization
   LCHIMAG   =     F  perturbation theory with respect to B field
   DQ        =  0.001000  dq finite difference perturbation B field
   LLRAUG    =     F  two centre corrections for induced B field



--------------------------------------------------------------------------------------------------------


 conjugate gradient relaxation of ions
   using selective dynamics as specified on POSCAR
 charge density and potential will be updated during run
 spin polarized calculation
 Variant of blocked Davidson
 Davidson routine will perform the subspace rotation
 perform sub-space diagonalisation
    after iterative eigenvector-optimisation
 modified Broyden-mixing scheme, WC =      100.0
 initial mixing is a Kerker type mixing with AMIX =  0.4000 and BMIX =      1.0000
 Hartree-type preconditioning will be used
 using additional bands           16
 real space projection scheme for non local part
 use partial core corrections
 calculate Harris-corrections to forces   (improved forces if not selfconsistent)
 use gradient corrections 
 use of overlap-Matrix (Vanderbilt PP)
 Fermi weights with tetrahedron method with Bloechl corrections


--------------------------------------------------------------------------------------------------------


  energy-cutoff  :      520.00
  volume of cell :      968.84
      direct lattice vectors                 reciprocal lattice vectors
     6.907777000 -0.000000000  0.000000000     0.144764372 -0.083579742  0.000000000
     3.453888000  5.982310000  0.000000000     0.000000000  0.167159509 -0.000000000
     0.000000000  0.000000000 23.444588000    -0.000000000  0.000000000  0.042653767

  length of vectors
     6.907777000  6.907776433 23.444588000     0.167159495  0.167159509  0.042653767



 k-points in units of 2pi/SCALE and weight: Kpoints from vasprun.xml                
   0.00000000  0.00000000  0.00000000       0.040
   0.02895287 -0.01671595  0.00000000       0.240
   0.05790575 -0.03343190  0.00000000       0.240
   0.05790575  0.00000000  0.00000000       0.240
  -0.05790575  0.06686380  0.00000000       0.240

 k-points in reciprocal lattice and weights: Kpoints from vasprun.xml                
   0.00000000  0.00000000  0.00000000       0.040
   0.20000000  0.00000000  0.00000000       0.240
   0.40000000  0.00000000  0.00000000       0.240
   0.40000000  0.20000000  0.00000000       0.240
  -0.40000000  0.20000000  0.00000000       0.240

 position of ions in fractional coordinates (direct lattice) 
   0.33333300  0.33333300  0.49992500
   0.66666700  0.66666700  0.50007500
   0.00000000  0.00000000  0.44821600
   0.00000000  0.00000000  0.55178400
   0.62635700  0.00042000  0.57375200
   0.00042000  0.37322400  0.57375200
   0.37322400  0.62635700  0.57375200
   0.37364300  0.99958000  0.42624800
   0.99958000  0.62677600  0.42624800
   0.62677600  0.37364300  0.42624800

 position of ions in cartesian coordinates  (Angst):
   3.45388488  1.99410134 11.72053566
   6.90778012  3.98820866 11.72405234
   0.00000000  0.00000000 10.50823946
   0.00000000  0.00000000 12.93634854
   4.32818511  0.00251257 13.45137925
   1.29197516  2.23274167 13.45137925
   4.74151509  3.74706174 13.45137925
   6.03347989  5.97979743  9.99320875
   9.06968984  3.74956833  9.99320875
   5.62014991  2.23524826  9.99320875



--------------------------------------------------------------------------------------------------------


 k-point  1 :   0.0000 0.0000 0.0000  plane waves:   26073
 k-point  2 :   0.2000 0.0000 0.0000  plane waves:   26070
 k-point  3 :   0.4000 0.0000 0.0000  plane waves:   26086
 k-point  4 :   0.4000 0.2000 0.0000  plane waves:   26085
 k-point  5 :  -0.4000 0.2000 0.0000  plane waves:   26115

 maximum and minimum number of plane-waves per node :     26115    26070

 maximum number of plane-waves:     26115
 maximum index in each direction: 
   IXMAX=   13   IYMAX=   12   IZMAX=   43
   IXMIN=  -13   IYMIN=  -13   IZMIN=  -43


 serial   3D FFT for wavefunctions
 parallel 3D FFT for charge:
    minimum data exchange during FFTs selected (reduces bandwidth)


 total amount of memory used by VASP MPI-rank0   126399. kBytes
=======================================================================

   base      :      30000. kBytes
   nonlr-proj:       6104. kBytes
   fftplans  :      11247. kBytes
   grid      :      66142. kBytes
   one-center:        311. kBytes
   wavefun   :      12595. kBytes

     INWAV:  cpu time    0.0000: real time    0.0006
 Broyden mixing: mesh for mixing (old mesh)
   NGX = 25   NGY = 25   NGZ = 87
  (NGX  =108   NGY  =108   NGZ  =360)
  gives a total of  54375 points

 initial charge density was supplied:
 charge density of overlapping atoms calculated
 number of electron      64.0000000 magnetization      14.8000000
 keeping initial charge density in first step


--------------------------------------------------------------------------------------------------------


 Maximum index for non-local projection operator         7925
 Maximum index for augmentation-charges         1342 (set IRDMAX)


--------------------------------------------------------------------------------------------------------


 First call to EWALD:  gamma=   0.179
 Maximum number of real-space cells 4x 4x 1
 Maximum number of reciprocal cells 2x 2x 6

    FEWALD:  cpu time    0.0040: real time    0.0015


--------------------------------------- Iteration      1(   1)  ---------------------------------------


vdW kernel read from vdw_kernel.bindat
  0.0000  0.2424  0.5071  0.7962  1.1119  1.4567  1.8333  2.2446  2.6937  3.1842
  3.7199  4.3049  4.9438  5.6415  6.4036  7.2358  8.1446  9.1372 10.2212 11.4050
 12.6979 14.1099 15.6519 17.3360 19.1751 21.1837 23.3773 25.7729 28.3892 31.2465
 34.3669 37.7748 41.4965 45.5611 50.0000

    POTLOK:  cpu time   51.9720: real time   52.3162
    SETDIJ:  cpu time    0.0360: real time    0.0389
     EDDAV:  cpu time   22.5000: real time   22.6973
 BZINTS: Fermi energy:  5.237961; 64.000000 electrons
         Band energy: -32.649468;  BLOECHL correction: -0.044749
       DOS:  cpu time    0.0080: real time    0.0101
    --------------------------------------------
      LOOP:  cpu time   74.5160: real time   75.0626

 eigenvalue-minimisations  :   960
 total energy-change (2. order) : 0.4384497E+03  (-0.1980278E+04)
 number of electron      64.0000000 magnetization      14.8000000
 augmentation part       64.0000000 magnetization      14.8000000

 Free energy of the ion-electron system (eV)
  ---------------------------------------------------
  alpha Z        PSCENC =        25.76852426
  Ewald energy   TEWEN  =      8063.44724659
  -Hartree energ DENC   =    -11314.48718551
  -exchange      EXHF   =         0.00000000
  -V(xc)+E(xc)   XCENC  =       107.85756450
  PAW double counting   =      1953.24371499    -2018.56579437
  entropy T*S    EENTRO =         0.00000000
  eigenvalues    EBANDS =       -32.64946826
  atomic energy  EATOM  =      3653.83506056
  Solvation  Ediel_sol  =         0.00000000
  ---------------------------------------------------
  free energy    TOTEN  =       438.44966277 eV

  energy without entropy =      438.44966277  energy(sigma->0) =      438.44966277


--------------------------------------------------------------------------------------------------------




--------------------------------------- Iteration      1(   2)  ---------------------------------------


     EDDAV:  cpu time   30.0360: real time   30.3261
 BZINTS: Fermi energy: -0.827361; 64.000000 electrons
         Band energy:-437.633224;  BLOECHL correction: -0.152355
       DOS:  cpu time    0.0080: real time    0.0070
    --------------------------------------------
      LOOP:  cpu time   30.0440: real time   30.3331

 eigenvalue-minimisations  :  1328
 total energy-change (2. order) :-0.4049838E+03  (-0.3876648E+03)
 number of electron      64.0000000 magnetization      14.8000000
 augmentation part       64.0000000 magnetization      14.8000000

 Free energy of the ion-electron system (eV)
  ---------------------------------------------------
  alpha Z        PSCENC =        25.76852426
  Ewald energy   TEWEN  =      8063.44724659
  -Hartree energ DENC   =    -11314.48718551
  -exchange      EXHF   =         0.00000000
  -V(xc)+E(xc)   XCENC  =       107.85756450
  PAW double counting   =      1953.24371499    -2018.56579437
  entropy T*S    EENTRO =         0.00000000
  eigenvalues    EBANDS =      -437.63322382
  atomic energy  EATOM  =      3653.83506056
  Solvation  Ediel_sol  =         0.00000000
  ---------------------------------------------------
  free energy    TOTEN  =        33.46590721 eV

  energy without entropy =       33.46590721  energy(sigma->0) =       33.46590721


--------------------------------------------------------------------------------------------------------




--------------------------------------- Iteration      1(   3)  ---------------------------------------


     EDDAV:  cpu time   29.5800: real time   30.0745
 BZINTS: Fermi energy: -3.247448; 64.000000 electrons
         Band energy:-519.921550;  BLOECHL correction:  0.000000
       DOS:  cpu time    0.0000: real time    0.0015
    --------------------------------------------
      LOOP:  cpu time   29.5800: real time   30.0760

 eigenvalue-minimisations  :  1312
 total energy-change (2. order) :-0.8228833E+02  (-0.7990781E+02)
 number of electron      64.0000000 magnetization      14.8000000
 augmentation part       64.0000000 magnetization      14.8000000

 Free energy of the ion-electron system (eV)
  ---------------------------------------------------
  alpha Z        PSCENC =        25.76852426
  Ewald energy   TEWEN  =      8063.44724659
  -Hartree energ DENC   =    -11314.48718551
  -exchange      EXHF   =         0.00000000
  -V(xc)+E(xc)   XCENC  =       107.85756450
  PAW double counting   =      1953.24371499    -2018.56579437
  entropy T*S    EENTRO =         0.00000000
  eigenvalues    EBANDS =      -519.92155003
  atomic energy  EATOM  =      3653.83506056
  Solvation  Ediel_sol  =         0.00000000
  ---------------------------------------------------
  free energy    TOTEN  =       -48.82241900 eV

  energy without entropy =      -48.82241900  energy(sigma->0) =      -48.82241900


--------------------------------------------------------------------------------------------------------




--------------------------------------- Iteration      1(   4)  ---------------------------------------


     EDDAV:  cpu time   24.9920: real time   26.0178
 BZINTS: Fermi energy: -3.583090; 64.000000 electrons
         Band energy:-523.135079;  BLOECHL correction:  0.000000
       DOS:  cpu time    0.0000: real time    0.0016
    --------------------------------------------
      LOOP:  cpu time   24.9920: real time   26.0193

 eigenvalue-minimisations  :  1120
 total energy-change (2. order) :-0.3213529E+01  (-0.3183281E+01)
 number of electron      64.0000000 magnetization      14.8000000
 augmentation part       64.0000000 magnetization      14.8000000

 Free energy of the ion-electron system (eV)
  ---------------------------------------------------
  alpha Z        PSCENC =        25.76852426
  Ewald energy   TEWEN  =      8063.44724659
  -Hartree energ DENC   =    -11314.48718551
  -exchange      EXHF   =         0.00000000
  -V(xc)+E(xc)   XCENC  =       107.85756450
  PAW double counting   =      1953.24371499    -2018.56579437
  entropy T*S    EENTRO =         0.00000000
  eigenvalues    EBANDS =      -523.13507858
  atomic energy  EATOM  =      3653.83506056
  Solvation  Ediel_sol  =         0.00000000
  ---------------------------------------------------
  free energy    TOTEN  =       -52.03594755 eV

  energy without entropy =      -52.03594755  energy(sigma->0) =      -52.03594755


--------------------------------------------------------------------------------------------------------




--------------------------------------- Iteration      1(   5)  ---------------------------------------


     EDDAV:  cpu time   31.9200: real time   32.3023
 BZINTS: Fermi energy: -3.556887; 64.000000 electrons
         Band energy:-523.240852;  BLOECHL correction:  0.000000
       DOS:  cpu time    0.0040: real time    0.0023
    CHARGE:  cpu time    2.1120: real time    2.1260
    MIXING:  cpu time    0.0400: real time    0.0408
    --------------------------------------------
      LOOP:  cpu time   34.0760: real time   34.4714

 eigenvalue-minimisations  :  1424
 total energy-change (2. order) :-0.1057732E+00  (-0.1057090E+00)
 number of electron      63.9999987 magnetization      14.2853500
 augmentation part        0.4255658 magnetization      11.0125669

 Broyden mixing:
  rms(total) = 0.27553E+01    rms(broyden)= 0.27553E+01
  rms(prec ) = 0.30761E+01
  weight for this iteration     100.00

 Free energy of the ion-electron system (eV)
  ---------------------------------------------------
  alpha Z        PSCENC =        25.76852426
  Ewald energy   TEWEN  =      8063.44724659
  -Hartree energ DENC   =    -11314.48718551
  -exchange      EXHF   =         0.00000000
  -V(xc)+E(xc)   XCENC  =       107.85756450
  PAW double counting   =      1953.24371499    -2018.56579437
  entropy T*S    EENTRO =         0.00000000
  eigenvalues    EBANDS =      -523.24085178
  atomic energy  EATOM  =      3653.83506056
  Solvation  Ediel_sol  =         0.00000000
  ---------------------------------------------------
  free energy    TOTEN  =       -52.14172075 eV

  energy without entropy =      -52.14172075  energy(sigma->0) =      -52.14172075


--------------------------------------------------------------------------------------------------------




--------------------------------------- Iteration      1(   6)  ---------------------------------------


    POTLOK:  cpu time   51.9680: real time   52.4331
    SETDIJ:  cpu time    0.0360: real time    0.0365
     EDDAV:  cpu time   28.7640: real time   29.8123
 BZINTS: Fermi energy: -4.332507; 64.000000 electrons
         Band energy:-737.312414;  BLOECHL correction: -0.026566
       DOS:  cpu time    0.0040: real time    0.0073
    CHARGE:  cpu time    2.0960: real time    2.1329
    MIXING:  cpu time    0.0400: real time    0.0419
    --------------------------------------------
      LOOP:  cpu time   82.9080: real time   84.4639

 eigenvalue-minimisations  :  1296
 total energy-change (2. order) :-0.5225660E+02  (-0.2853711E+02)
 number of electron      63.9999980 magnetization      13.8798044
 augmentation part       10.1765188 magnetization      12.4928493

 Broyden mixing:
  rms(total) = 0.63834E+01    rms(broyden)= 0.63833E+01
  rms(prec ) = 0.67257E+01
  weight for this iteration     100.00

 eigenvalues of (default mixing * dielectric matrix)
  average eigenvalue GAMMA=   0.1937
  0.1937

 Free energy of the ion-electron system (eV)
  ---------------------------------------------------
  alpha Z        PSCENC =        25.76852426
  Ewald energy   TEWEN  =      8063.44724659
  -Hartree energ DENC   =    -11183.84888892
  -exchange      EXHF   =         0.00000000
  -V(xc)+E(xc)   XCENC  =       107.98763233
  PAW double counting   =      1721.40599201    -1755.68147078
  entropy T*S    EENTRO =         0.00000000
  eigenvalues    EBANDS =      -737.31241399
  atomic energy  EATOM  =      3653.83506056
  Solvation  Ediel_sol  =         0.00000000
  ---------------------------------------------------
  free energy    TOTEN  =      -104.39831794 eV

  energy without entropy =     -104.39831794  energy(sigma->0) =     -104.39831794


--------------------------------------------------------------------------------------------------------




--------------------------------------- Iteration      1(   7)  ---------------------------------------


    POTLOK:  cpu time   51.7920: real time   52.4526
    SETDIJ:  cpu time    0.0520: real time    0.0526
     EDDAV:  cpu time   26.7040: real time   27.3370
 BZINTS: Fermi energy: -4.689005; 64.000000 electrons
         Band energy:-600.497585;  BLOECHL correction: -0.007702
       DOS:  cpu time    0.0040: real time    0.0076
    CHARGE:  cpu time    2.0360: real time    2.1220
    MIXING:  cpu time    0.0320: real time    0.0441
    --------------------------------------------
      LOOP:  cpu time   80.6200: real time   82.0159

 eigenvalue-minimisations  :  1184
 total energy-change (2. order) : 0.5183358E+02  (-0.5832037E+01)
 number of electron      63.9999981 magnetization      13.3155731
 augmentation part        9.0109742 magnetization       9.8862574

 Broyden mixing:
  rms(total) = 0.41599E+01    rms(broyden)= 0.41599E+01
  rms(prec ) = 0.44383E+01
  weight for this iteration     100.00

 eigenvalues of (default mixing * dielectric matrix)
  average eigenvalue GAMMA=   0.5787
  0.5787  0.5787

 Free energy of the ion-electron system (eV)
  ---------------------------------------------------
  alpha Z        PSCENC =        25.76852426
  Ewald energy   TEWEN  =      8063.44724659
  -Hartree energ DENC   =    -11244.43773884
  -exchange      EXHF   =         0.00000000
  -V(xc)+E(xc)   XCENC  =       104.95793952
  PAW double counting   =      1835.59875436    -1891.23694240
  entropy T*S    EENTRO =         0.00000000
  eigenvalues    EBANDS =      -600.49758468
  atomic energy  EATOM  =      3653.83506056
  Solvation  Ediel_sol  =         0.00000000
  ---------------------------------------------------
  free energy    TOTEN  =       -52.56474061 eV

  energy without entropy =      -52.56474061  energy(sigma->0) =      -52.56474061


--------------------------------------------------------------------------------------------------------




--------------------------------------- Iteration      1(   8)  ---------------------------------------


    POTLOK:  cpu time   52.0280: real time   52.5434
    SETDIJ:  cpu time    0.0400: real time    0.0407
     EDDAV:  cpu time   26.6240: real time   26.8946
 BZINTS: Fermi energy: -2.997374; 64.000000 electrons
         Band energy:-512.842909;  BLOECHL correction:  0.000000
       DOS:  cpu time    0.0040: real time    0.0035
    CHARGE:  cpu time    2.0520: real time    2.0851
    MIXING:  cpu time    0.0440: real time    0.0441
    --------------------------------------------
      LOOP:  cpu time   80.7920: real time   81.6113

 eigenvalue-minimisations  :  1168
 total energy-change (2. order) : 0.6628905E+01  (-0.9950511E+01)
 number of electron      63.9999987 magnetization      12.8296580
 augmentation part        0.1769331 magnetization       8.9928360

 Broyden mixing:
  rms(total) = 0.34947E+01    rms(broyden)= 0.34946E+01
  rms(prec ) = 0.37659E+01
  weight for this iteration     100.00

 eigenvalues of (default mixing * dielectric matrix)
  average eigenvalue GAMMA=   0.6216
  0.9978  0.4335  0.4335

 Free energy of the ion-electron system (eV)
  ---------------------------------------------------
  alpha Z        PSCENC =        25.76852426
  Ewald energy   TEWEN  =      8063.44724659
  -Hartree energ DENC   =    -11311.90341783
  -exchange      EXHF   =         0.00000000
  -V(xc)+E(xc)   XCENC  =       104.82802691
  PAW double counting   =      1960.90887239    -2029.97723927
  entropy T*S    EENTRO =         0.00000000
  eigenvalues    EBANDS =      -512.84290886
  atomic energy  EATOM  =      3653.83506056
  Solvation  Ediel_sol  =         0.00000000
  ---------------------------------------------------
  free energy    TOTEN  =       -45.93583523 eV

  energy without entropy =      -45.93583523  energy(sigma->0) =      -45.93583523


--------------------------------------------------------------------------------------------------------




--------------------------------------- Iteration      1(   9)  ---------------------------------------


    POTLOK:  cpu time   51.8560: real time   52.1842
    SETDIJ:  cpu time    0.0440: real time    0.0413
     EDDAV:  cpu time   27.3560: real time   27.5927
 BZINTS: Fermi energy: -4.297325; 64.000000 electrons
         Band energy:-539.050953;  BLOECHL correction: -0.010982
       DOS:  cpu time    0.0040: real time    0.0074
    CHARGE:  cpu time    2.1000: real time    2.1258
    MIXING:  cpu time    0.0480: real time    0.0481
    --------------------------------------------
      LOOP:  cpu time   81.4080: real time   81.9995

 eigenvalue-minimisations  :  1200
 total energy-change (2. order) : 0.9410322E+01  (-0.2219828E+01)
 number of electron      63.9999983 magnetization      12.6469333
 augmentation part        4.3998474 magnetization       9.3053320

 Broyden mixing:
  rms(total) = 0.58650E+00    rms(broyden)= 0.58626E+00
  rms(prec ) = 0.60043E+00
  weight for this iteration     100.00

 eigenvalues of (default mixing * dielectric matrix)
  average eigenvalue GAMMA=   0.5108
  1.0141  0.4413  0.4413  0.1468

 Free energy of the ion-electron system (eV)
  ---------------------------------------------------
  alpha Z        PSCENC =        25.76852426
  Ewald energy   TEWEN  =      8063.44724659
  -Hartree energ DENC   =    -11278.99560502
  -exchange      EXHF   =         0.00000000
  -V(xc)+E(xc)   XCENC  =       104.12171819
  PAW double counting   =      1900.17433035    -1965.82583534
  entropy T*S    EENTRO =         0.00000000
  eigenvalues    EBANDS =      -539.05095277
  atomic energy  EATOM  =      3653.83506056
  Solvation  Ediel_sol  =         0.00000000
  ---------------------------------------------------
  free energy    TOTEN  =       -36.52551317 eV

  energy without entropy =      -36.52551317  energy(sigma->0) =      -36.52551317


--------------------------------------------------------------------------------------------------------




--------------------------------------- Iteration      1(  10)  ---------------------------------------


    POTLOK:  cpu time   51.4600: real time   51.7058
    SETDIJ:  cpu time    0.0320: real time    0.0346
     EDDAV:  cpu time   31.8880: real time   32.1885
 BZINTS: Fermi energy: -4.496371; 64.000000 electrons
         Band energy:-543.579024;  BLOECHL correction: -0.003103
       DOS:  cpu time    0.0080: real time    0.0085
    CHARGE:  cpu time    1.9440: real time    2.1173
    MIXING:  cpu time    0.0480: real time    0.0460
    --------------------------------------------
      LOOP:  cpu time   85.3800: real time   86.1007

 eigenvalue-minimisations  :  1424
 total energy-change (2. order) :-0.5166689E+00  (-0.1638492E+00)
 number of electron      63.9999982 magnetization      12.5931755
 augmentation part        5.0549520 magnetization       9.6542086

 Broyden mixing:
  rms(total) = 0.78742E+00    rms(broyden)= 0.78738E+00
  rms(prec ) = 0.83310E+00
  weight for this iteration     100.00

 eigenvalues of (default mixing * dielectric matrix)
  average eigenvalue GAMMA=   0.5038
  1.0285  0.4358  0.4358  0.3094  0.3094

 Free energy of the ion-electron system (eV)
  ---------------------------------------------------
  alpha Z        PSCENC =        25.76852426
  Ewald energy   TEWEN  =      8063.44724659
  -Hartree energ DENC   =    -11275.53374062
  -exchange      EXHF   =         0.00000000
  -V(xc)+E(xc)   XCENC  =       104.10462369
  PAW double counting   =      1894.44228992    -1959.52716196
  entropy T*S    EENTRO =         0.00000000
  eigenvalues    EBANDS =      -543.57902447
  atomic energy  EATOM  =      3653.83506056
  Solvation  Ediel_sol  =         0.00000000
  ---------------------------------------------------
  free energy    TOTEN  =       -37.04218203 eV

  energy without entropy =      -37.04218203  energy(sigma->0) =      -37.04218203


--------------------------------------------------------------------------------------------------------




--------------------------------------- Iteration      1(  11)  ---------------------------------------


    POTLOK:  cpu time   51.8240: real time   52.5092
    SETDIJ:  cpu time    0.0440: real time    0.0422
     EDDAV:  cpu time   24.6120: real time   24.9901
 BZINTS: Fermi energy: -4.458892; 64.000000 electrons
         Band energy:-542.382375;  BLOECHL correction: -0.001927
       DOS:  cpu time    0.0040: real time    0.0065
    CHARGE:  cpu time    2.0880: real time    2.1184
    MIXING:  cpu time    0.0440: real time    0.0455
    --------------------------------------------
      LOOP:  cpu time   78.6160: real time   79.7119

 eigenvalue-minimisations  :  1072
 total energy-change (2. order) : 0.7266655E-01  (-0.1278720E-01)
 number of electron      63.9999982 magnetization      12.6837204
 augmentation part        4.9113263 magnetization       9.7951777

 Broyden mixing:
  rms(total) = 0.69891E+00    rms(broyden)= 0.69891E+00
  rms(prec ) = 0.73509E+00
  weight for this iteration     100.00

 eigenvalues of (default mixing * dielectric matrix)
  average eigenvalue GAMMA=   0.5165
  1.0139  0.4753  0.4753  0.4330  0.4330  0.2688

 Free energy of the ion-electron system (eV)
  ---------------------------------------------------
  alpha Z        PSCENC =        25.76852426
  Ewald energy   TEWEN  =      8063.44724659
  -Hartree energ DENC   =    -11276.53904718
  -exchange      EXHF   =         0.00000000
  -V(xc)+E(xc)   XCENC  =       104.09070590
  PAW double counting   =      1896.41685826    -1961.60648876
  entropy T*S    EENTRO =         0.00000000
  eigenvalues    EBANDS =      -542.38237512
  atomic energy  EATOM  =      3653.83506056
  Solvation  Ediel_sol  =         0.00000000
  ---------------------------------------------------
  free energy    TOTEN  =       -36.96951547 eV

  energy without entropy =      -36.96951547  energy(sigma->0) =      -36.96951547


--------------------------------------------------------------------------------------------------------




--------------------------------------- Iteration      1(  12)  ---------------------------------------


    POTLOK:  cpu time   51.8680: real time   52.2382
    SETDIJ:  cpu time    0.0400: real time    0.0379
     EDDAV:  cpu time   26.9040: real time   28.2347
 BZINTS: Fermi energy: -4.446597; 63.993166 electrons
         Band energy:-541.068443;  BLOECHL correction: -0.001309
       DOS:  cpu time    0.0080: real time    0.0099
    CHARGE:  cpu time    2.0840: real time    2.1483
    MIXING:  cpu time    0.0440: real time    0.0458
    --------------------------------------------
      LOOP:  cpu time   80.9480: real time   82.7148

 eigenvalue-minimisations  :  1232
 total energy-change (2. order) : 0.1098399E+00  (-0.3926087E-02)
 number of electron      63.9931645 magnetization      11.2913471
 augmentation part        4.8662174 magnetization       8.4057422

 Broyden mixing:
  rms(total) = 0.70364E+00    rms(broyden)= 0.70364E+00
  rms(prec ) = 0.73668E+00
  weight for this iteration     100.00

 eigenvalues of (default mixing * dielectric matrix)
  average eigenvalue GAMMA=   0.7384
  1.1199  1.1199  1.0359  0.4336  0.4336  0.5130  0.5130

 Free energy of the ion-electron system (eV)
  ---------------------------------------------------
  alpha Z        PSCENC =        25.76852426
  Ewald energy   TEWEN  =      8063.44724659
  -Hartree energ DENC   =    -11277.57272884
  -exchange      EXHF   =         0.00000000
  -V(xc)+E(xc)   XCENC  =       104.13047571
  PAW double counting   =      1898.31525000    -1963.71506121
  entropy T*S    EENTRO =         0.00000000
  eigenvalues    EBANDS =      -541.06844261
  atomic energy  EATOM  =      3653.83506056
  Solvation  Ediel_sol  =         0.00000000
  ---------------------------------------------------
  free energy    TOTEN  =       -36.85967554 eV

  energy without entropy =      -36.85967554  energy(sigma->0) =      -36.85967554


--------------------------------------------------------------------------------------------------------




--------------------------------------- Iteration      1(  13)  ---------------------------------------


    POTLOK:  cpu time   51.9080: real time   52.6270
    SETDIJ:  cpu time    0.0400: real time    0.0392
     EDDAV:  cpu time   28.8840: real time   29.1236
 BZINTS: Fermi energy: -4.498591; 64.000000 electrons
         Band energy:-547.975983;  BLOECHL correction: -0.008044
       DOS:  cpu time    0.0040: real time    0.0072
    CHARGE:  cpu time    2.0800: real time    2.0991
    MIXING:  cpu time    0.0440: real time    0.0446
    --------------------------------------------
      LOOP:  cpu time   82.9600: real time   83.9406

 eigenvalue-minimisations  :  1280
 total energy-change (2. order) :-0.5849365E+00  (-0.5508584E-01)
 number of electron      63.9999983 magnetization       9.7292499
 augmentation part        5.0874447 magnetization       6.9729466

 Broyden mixing:
  rms(total) = 0.70126E+00    rms(broyden)= 0.70125E+00
  rms(prec ) = 0.74717E+00
  weight for this iteration     100.00

 eigenvalues of (default mixing * dielectric matrix)
  average eigenvalue GAMMA=   0.8841
  1.9110  1.1743  1.1743  0.4290  0.4290  0.7218  0.7218  0.5120

 Free energy of the ion-electron system (eV)
  ---------------------------------------------------
  alpha Z        PSCENC =        25.76852426
  Ewald energy   TEWEN  =      8063.44724659
  -Hartree energ DENC   =    -11272.32853576
  -exchange      EXHF   =         0.00000000
  -V(xc)+E(xc)   XCENC  =       103.83815675
  PAW double counting   =      1890.48532148    -1954.51440251
  entropy T*S    EENTRO =         0.00000000
  eigenvalues    EBANDS =      -547.97598346
  atomic energy  EATOM  =      3653.83506056
  Solvation  Ediel_sol  =         0.00000000
  ---------------------------------------------------
  free energy    TOTEN  =       -37.44461208 eV

  energy without entropy =      -37.44461208  energy(sigma->0) =      -37.44461208


--------------------------------------------------------------------------------------------------------




--------------------------------------- Iteration      1(  14)  ---------------------------------------


    POTLOK:  cpu time   50.7760: real time   51.0358
    SETDIJ:  cpu time    0.0320: real time    0.0310
     EDDAV:  cpu time   31.2080: real time   31.5007
 BZINTS: Fermi energy: -4.223355; 64.000000 electrons
         Band energy:-538.970328;  BLOECHL correction: -0.013575
       DOS:  cpu time    0.0040: real time    0.0067
    CHARGE:  cpu time    2.0840: real time    2.1060
    MIXING:  cpu time    0.0480: real time    0.0495
    --------------------------------------------
      LOOP:  cpu time   84.1520: real time   84.7297

 eigenvalue-minimisations  :  1408
 total energy-change (2. order) :-0.2894868E+00  (-0.1734227E+00)
 number of electron      63.9999984 magnetization       9.6437729
 augmentation part        3.5998073 magnetization       6.5983230

 Broyden mixing:
  rms(total) = 0.74618E+00    rms(broyden)= 0.74614E+00
  rms(prec ) = 0.78533E+00
  weight for this iteration     100.00

 eigenvalues of (default mixing * dielectric matrix)
  average eigenvalue GAMMA=   0.8857
  1.9530  1.2830  1.2830  0.8968  0.4284  0.4284  0.5825  0.5825  0.5341

 Free energy of the ion-electron system (eV)
  ---------------------------------------------------
  alpha Z        PSCENC =        25.76852426
  Ewald energy   TEWEN  =      8063.44724659
  -Hartree energ DENC   =    -11280.49779212
  -exchange      EXHF   =         0.00000000
  -V(xc)+E(xc)   XCENC  =       103.77741691
  PAW double counting   =      1907.04970455    -1972.14393204
  entropy T*S    EENTRO =         0.00000000
  eigenvalues    EBANDS =      -538.97032760
  atomic energy  EATOM  =      3653.83506056
  Solvation  Ediel_sol  =         0.00000000
  ---------------------------------------------------
  free energy    TOTEN  =       -37.73409887 eV

  energy without entropy =      -37.73409887  energy(sigma->0) =      -37.73409887


--------------------------------------------------------------------------------------------------------




--------------------------------------- Iteration      1(  15)  ---------------------------------------


    POTLOK:  cpu time   50.7680: real time   50.8325
    SETDIJ:  cpu time    0.0360: real time    0.0382
     EDDAV:  cpu time   29.1600: real time   29.4270
 BZINTS: Fermi energy: -4.300714; 64.000000 electrons
         Band energy:-539.183300;  BLOECHL correction: -0.004911
       DOS:  cpu time    0.0040: real time    0.0075
    CHARGE:  cpu time    2.1040: real time    2.1045
    MIXING:  cpu time    0.0480: real time    0.0491
    --------------------------------------------
      LOOP:  cpu time   82.1200: real time   82.4588

 eigenvalue-minimisations  :  1312
 total energy-change (2. order) :-0.5632207E-01  (-0.8527208E-01)
 number of electron      63.9999983 magnetization       8.4972926
 augmentation part        4.5280706 magnetization       5.7856998

 Broyden mixing:
  rms(total) = 0.31676E+00    rms(broyden)= 0.31673E+00
  rms(prec ) = 0.32487E+00
  weight for this iteration     100.00

 eigenvalues of (default mixing * dielectric matrix)
  average eigenvalue GAMMA=   1.0243
  3.1123  1.2596  1.2596  1.2884  0.4282  0.4282  0.6656  0.6656  0.6395  0.4964

 Free energy of the ion-electron system (eV)
  ---------------------------------------------------
  alpha Z        PSCENC =        25.76852426
  Ewald energy   TEWEN  =      8063.44724659
  -Hartree energ DENC   =    -11280.15839010
  -exchange      EXHF   =         0.00000000
  -V(xc)+E(xc)   XCENC  =       103.99209252
  PAW double counting   =      1906.44558417    -1971.93723942
  entropy T*S    EENTRO =         0.00000000
  eigenvalues    EBANDS =      -539.18329954
  atomic energy  EATOM  =      3653.83506056
  Solvation  Ediel_sol  =         0.00000000
  ---------------------------------------------------
  free energy    TOTEN  =       -37.79042093 eV

  energy without entropy =      -37.79042093  energy(sigma->0) =      -37.79042093


--------------------------------------------------------------------------------------------------------




--------------------------------------- Iteration      1(  16)  ---------------------------------------


    POTLOK:  cpu time   52.5560: real time   52.7113
    SETDIJ:  cpu time    0.0400: real time    0.0381
     EDDAV:  cpu time   30.5720: real time   31.1394
 BZINTS: Fermi energy: -4.221612; 64.000000 electrons
         Band energy:-537.480368;  BLOECHL correction: -0.012298
       DOS:  cpu time    0.0080: real time    0.0075
    CHARGE:  cpu time    2.1080: real time    2.1478
    MIXING:  cpu time    0.0480: real time    0.0474
    --------------------------------------------
      LOOP:  cpu time   85.3320: real time   86.0915

 eigenvalue-minimisations  :  1360
 total energy-change (2. order) :-0.2447677E+00  (-0.2182441E-01)
 number of electron      63.9999984 magnetization       8.1336775
 augmentation part        4.0775016 magnetization       4.9987753

 Broyden mixing:
  rms(total) = 0.22004E+00    rms(broyden)= 0.22003E+00
  rms(prec ) = 0.23725E+00
  weight for this iteration     100.00

 eigenvalues of (default mixing * dielectric matrix)
  average eigenvalue GAMMA=   1.1054
  4.0331  1.2557  1.2557  1.4776  0.8182  0.8182  0.4284  0.4284  0.5737  0.5737
  0.4968

 Free energy of the ion-electron system (eV)
  ---------------------------------------------------
  alpha Z        PSCENC =        25.76852426
  Ewald energy   TEWEN  =      8063.44724659
  -Hartree energ DENC   =    -11281.87177579
  -exchange      EXHF   =         0.00000000
  -V(xc)+E(xc)   XCENC  =       104.00628813
  PAW double counting   =      1908.70904288    -1974.44920721
  entropy T*S    EENTRO =         0.00000000
  eigenvalues    EBANDS =      -537.48036806
  atomic energy  EATOM  =      3653.83506056
  Solvation  Ediel_sol  =         0.00000000
  ---------------------------------------------------
  free energy    TOTEN  =       -38.03518862 eV

  energy without entropy =      -38.03518862  energy(sigma->0) =      -38.03518862


--------------------------------------------------------------------------------------------------------




--------------------------------------- Iteration      1(  17)  ---------------------------------------


    POTLOK:  cpu time   51.6760: real time   52.0856
    SETDIJ:  cpu time    0.0400: real time    0.0371
     EDDAV:  cpu time   28.4440: real time   28.8049
 BZINTS: Fermi energy: -4.376184; 64.000000 electrons
         Band energy:-543.257668;  BLOECHL correction: -0.002999
       DOS:  cpu time    0.0040: real time    0.0064
    CHARGE:  cpu time    2.0200: real time    2.0888
    MIXING:  cpu time    0.0520: real time    0.0523
    --------------------------------------------
      LOOP:  cpu time   82.2360: real time   83.0751

 eigenvalue-minimisations  :  1264
 total energy-change (2. order) :-0.1352727E+00  (-0.3567346E-01)
 number of electron      63.9999983 magnetization       7.6214987
 augmentation part        4.8015583 magnetization       5.0095086

 Broyden mixing:
  rms(total) = 0.56294E+00    rms(broyden)= 0.56292E+00
  rms(prec ) = 0.58481E+00
  weight for this iteration     100.00

 eigenvalues of (default mixing * dielectric matrix)
  average eigenvalue GAMMA=   1.1243
  4.6406  1.2546  1.2546  1.4567  0.9036  0.9036  0.4284  0.4284  0.6441  0.6441
  0.4962  0.4366

 Free energy of the ion-electron system (eV)
  ---------------------------------------------------
  alpha Z        PSCENC =        25.76852426
  Ewald energy   TEWEN  =      8063.44724659
  -Hartree energ DENC   =    -11276.77806162
  -exchange      EXHF   =         0.00000000
  -V(xc)+E(xc)   XCENC  =       103.89751501
  PAW double counting   =      1898.27420483    -1963.35728272
  entropy T*S    EENTRO =         0.00000000
  eigenvalues    EBANDS =      -543.25766827
  atomic energy  EATOM  =      3653.83506056
  Solvation  Ediel_sol  =         0.00000000
  ---------------------------------------------------
  free energy    TOTEN  =       -38.17046134 eV

  energy without entropy =      -38.17046134  energy(sigma->0) =      -38.17046134


--------------------------------------------------------------------------------------------------------




--------------------------------------- Iteration      1(  18)  ---------------------------------------


    POTLOK:  cpu time   51.4480: real time   51.7208
    SETDIJ:  cpu time    0.0360: real time    0.0370
     EDDAV:  cpu time   31.0200: real time   31.4814
 BZINTS: Fermi energy: -4.382250; 64.000000 electrons
         Band energy:-544.782994;  BLOECHL correction: -0.002572
       DOS:  cpu time    0.0080: real time    0.0075
    CHARGE:  cpu time    1.9040: real time    2.1350
    MIXING:  cpu time    0.0480: real time    0.0497
    --------------------------------------------
      LOOP:  cpu time   84.4640: real time   85.4314

 eigenvalue-minimisations  :  1392
 total energy-change (2. order) : 0.1626645E-01  (-0.7831220E-02)
 number of electron      63.9999983 magnetization       6.8675813
 augmentation part        4.6680281 magnetization       4.3533758

 Broyden mixing:
  rms(total) = 0.39529E+00    rms(broyden)= 0.39528E+00
  rms(prec ) = 0.41061E+00
  weight for this iteration     100.00

 eigenvalues of (default mixing * dielectric matrix)
  average eigenvalue GAMMA=   1.2435
  6.0378  1.2748  1.2748  1.6560  0.9810  0.9810  0.4285  0.4285  0.7619  0.7619
  0.5447  0.5447  0.4898

 Free energy of the ion-electron system (eV)
  ---------------------------------------------------
  alpha Z        PSCENC =        25.76852426
  Ewald energy   TEWEN  =      8063.44724659
  -Hartree energ DENC   =    -11275.35973973
  -exchange      EXHF   =         0.00000000
  -V(xc)+E(xc)   XCENC  =       103.72816790
  PAW double counting   =      1895.54364027    -1960.33410098
  entropy T*S    EENTRO =         0.00000000
  eigenvalues    EBANDS =      -544.78299377
  atomic energy  EATOM  =      3653.83506056
  Solvation  Ediel_sol  =         0.00000000
  ---------------------------------------------------
  free energy    TOTEN  =       -38.15419489 eV

  energy without entropy =      -38.15419489  energy(sigma->0) =      -38.15419489


--------------------------------------------------------------------------------------------------------




--------------------------------------- Iteration      1(  19)  ---------------------------------------


    POTLOK:  cpu time   50.9280: real time   51.3117
    SETDIJ:  cpu time    0.0360: real time    0.0371
     EDDAV:  cpu time   27.9440: real time   28.3212
 BZINTS: Fermi energy: -4.384328; 64.000000 electrons
         Band energy:-545.213676;  BLOECHL correction: -0.002137
       DOS:  cpu time    0.0040: real time    0.0048
    CHARGE:  cpu time    2.0880: real time    2.1496
    MIXING:  cpu time    0.0560: real time    0.0572
    --------------------------------------------
      LOOP:  cpu time   81.0560: real time   81.8816

 eigenvalue-minimisations  :  1248
 total energy-change (2. order) :-0.1114013E-01  (-0.4884407E-02)
 number of electron      63.9999983 magnetization       6.2208450
 augmentation part        4.5248262 magnetization       3.7990989

 Broyden mixing:
  rms(total) = 0.23842E+00    rms(broyden)= 0.23842E+00
  rms(prec ) = 0.24692E+00
  weight for this iteration     100.00

 eigenvalues of (default mixing * dielectric matrix)
  average eigenvalue GAMMA=   1.4596
  8.6203  1.2791  1.2791  1.6986  1.3071  1.1698  1.1698  0.4285  0.4285  0.7121
  0.7121  0.5680  0.5680  0.4942

 Free energy of the ion-electron system (eV)
  ---------------------------------------------------
  alpha Z        PSCENC =        25.76852426
  Ewald energy   TEWEN  =      8063.44724659
  -Hartree energ DENC   =    -11274.81060381
  -exchange      EXHF   =         0.00000000
  -V(xc)+E(xc)   XCENC  =       103.61883262
  PAW double counting   =      1895.41301405    -1960.22373282
  entropy T*S    EENTRO =         0.00000000
  eigenvalues    EBANDS =      -545.21367648
  atomic energy  EATOM  =      3653.83506056
  Solvation  Ediel_sol  =         0.00000000
  ---------------------------------------------------
  free energy    TOTEN  =       -38.16533503 eV

  energy without entropy =      -38.16533503  energy(sigma->0) =      -38.16533503


--------------------------------------------------------------------------------------------------------




--------------------------------------- Iteration      1(  20)  ---------------------------------------


    POTLOK:  cpu time   50.9320: real time   51.2834
    SETDIJ:  cpu time    0.0360: real time    0.0372
     EDDAV:  cpu time   24.4200: real time   24.6623
 BZINTS: Fermi energy: -4.376597; 64.000000 electrons
         Band energy:-545.777384;  BLOECHL correction: -0.003696
       DOS:  cpu time    0.0040: real time    0.0055
    CHARGE:  cpu time    2.0800: real time    2.0837
    MIXING:  cpu time    0.0520: real time    0.0521
    --------------------------------------------
      LOOP:  cpu time   77.5240: real time   78.1241

 eigenvalue-minimisations  :  1072
 total energy-change (2. order) :-0.3952528E-01  (-0.1705474E-02)
 number of electron      63.9999983 magnetization       6.0364178
 augmentation part        4.5597718 magnetization       3.6095619

 Broyden mixing:
  rms(total) = 0.21492E+00    rms(broyden)= 0.21492E+00
  rms(prec ) = 0.22809E+00
  weight for this iteration     100.00

 eigenvalues of (default mixing * dielectric matrix)
  average eigenvalue GAMMA=   1.5197
  9.8944  2.0009  1.2776  1.2776  1.3185  1.3185  0.4285  0.4285  0.8954  0.8954
  0.7201  0.7201  0.5642  0.5642  0.4916

 Free energy of the ion-electron system (eV)
  ---------------------------------------------------
  alpha Z        PSCENC =        25.76852426
  Ewald energy   TEWEN  =      8063.44724659
  -Hartree energ DENC   =    -11274.10243311
  -exchange      EXHF   =         0.00000000
  -V(xc)+E(xc)   XCENC  =       103.49832160
  PAW double counting   =      1896.17982299    -1961.05401936
  entropy T*S    EENTRO =         0.00000000
  eigenvalues    EBANDS =      -545.77738386
  atomic energy  EATOM  =      3653.83506056
  Solvation  Ediel_sol  =         0.00000000
  ---------------------------------------------------
  free energy    TOTEN  =       -38.20486031 eV

  energy without entropy =      -38.20486031  energy(sigma->0) =      -38.20486031


--------------------------------------------------------------------------------------------------------




--------------------------------------- Iteration      1(  21)  ---------------------------------------


    POTLOK:  cpu time   51.0960: real time   51.4724
    SETDIJ:  cpu time    0.0360: real time    0.0366
     EDDAV:  cpu time   28.1040: real time   28.4669
 BZINTS: Fermi energy: -4.374109; 64.000000 electrons
         Band energy:-545.326188;  BLOECHL correction: -0.004237
       DOS:  cpu time    0.0040: real time    0.0069
    CHARGE:  cpu time    2.0800: real time    2.0809
    MIXING:  cpu time    0.0520: real time    0.0534
    --------------------------------------------
      LOOP:  cpu time   81.3720: real time   82.1170

 eigenvalue-minimisations  :  1264
 total energy-change (2. order) : 0.1711868E-01  (-0.2026696E-02)
 number of electron      63.9999983 magnetization       6.0602134
 augmentation part        4.4568491 magnetization       3.6957824

 Broyden mixing:
  rms(total) = 0.11254E+00    rms(broyden)= 0.11253E+00
  rms(prec ) = 0.11965E+00
  weight for this iteration     100.00

 eigenvalues of (default mixing * dielectric matrix)
  average eigenvalue GAMMA=   1.5510
 10.2909  2.3422  1.8663  1.2804  1.2804  1.0741  1.0741  0.4285  0.4285  0.8845
  0.8845  0.6809  0.6809  0.5642  0.5642  0.4917

 Free energy of the ion-electron system (eV)
  ---------------------------------------------------
  alpha Z        PSCENC =        25.76852426
  Ewald energy   TEWEN  =      8063.44724659
  -Hartree energ DENC   =    -11274.47198487
  -exchange      EXHF   =         0.00000000
  -V(xc)+E(xc)   XCENC  =       103.44330569
  PAW double counting   =      1897.82691173    -1962.71061759
  entropy T*S    EENTRO =         0.00000000
  eigenvalues    EBANDS =      -545.32618799
  atomic energy  EATOM  =      3653.83506056
  Solvation  Ediel_sol  =         0.00000000
  ---------------------------------------------------
  free energy    TOTEN  =       -38.18774163 eV

  energy without entropy =      -38.18774163  energy(sigma->0) =      -38.18774163


--------------------------------------------------------------------------------------------------------




--------------------------------------- Iteration      1(  22)  ---------------------------------------


    POTLOK:  cpu time   50.6600: real time   51.0565
    SETDIJ:  cpu time    0.0560: real time    0.0538
     EDDAV:  cpu time   29.2440: real time   29.6729
 BZINTS: Fermi energy: -4.368508; 64.000000 electrons
         Band energy:-544.300314;  BLOECHL correction: -0.004118
       DOS:  cpu time    0.0080: real time    0.0071
    CHARGE:  cpu time    2.0880: real time    2.1014
    MIXING:  cpu time    0.0600: real time    0.0594
    --------------------------------------------
      LOOP:  cpu time   82.1160: real time   82.9509

 eigenvalue-minimisations  :  1312
 total energy-change (2. order) : 0.3268462E-02  (-0.1230749E-02)
 number of electron      63.9999983 magnetization       6.0441929
 augmentation part        4.3891287 magnetization       3.7075447

 Broyden mixing:
  rms(total) = 0.48704E-01    rms(broyden)= 0.48703E-01
  rms(prec ) = 0.51702E-01
  weight for this iteration     100.00

 eigenvalues of (default mixing * dielectric matrix)
  average eigenvalue GAMMA=   1.5525
 10.6875  2.4849  1.9726  1.2814  1.2814  1.2760  1.2760  0.4285  0.4285  0.8006
  0.8006  0.6844  0.6844  0.6995  0.5571  0.5571  0.4923

 Free energy of the ion-electron system (eV)
  ---------------------------------------------------
  alpha Z        PSCENC =        25.76852426
  Ewald energy   TEWEN  =      8063.44724659
  -Hartree energ DENC   =    -11275.35390044
  -exchange      EXHF   =         0.00000000
  -V(xc)+E(xc)   XCENC  =       103.42178609
  PAW double counting   =      1900.20856845    -1965.21144477
  entropy T*S    EENTRO =         0.00000000
  eigenvalues    EBANDS =      -544.30031391
  atomic energy  EATOM  =      3653.83506056
  Solvation  Ediel_sol  =         0.00000000
  ---------------------------------------------------
  free energy    TOTEN  =       -38.18447316 eV

  energy without entropy =      -38.18447316  energy(sigma->0) =      -38.18447316


--------------------------------------------------------------------------------------------------------




--------------------------------------- Iteration      1(  23)  ---------------------------------------


    POTLOK:  cpu time   50.9000: real time   51.0611
    SETDIJ:  cpu time    0.0400: real time    0.0377
     EDDAV:  cpu time   29.1440: real time   29.4196
 BZINTS: Fermi energy: -4.368607; 64.000000 electrons
         Band energy:-544.232735;  BLOECHL correction: -0.004260
       DOS:  cpu time    0.0080: real time    0.0066
    CHARGE:  cpu time    2.0760: real time    2.1034
    MIXING:  cpu time    0.0720: real time    0.0735
    --------------------------------------------
      LOOP:  cpu time   82.2400: real time   82.7019

 eigenvalue-minimisations  :  1312
 total energy-change (2. order) :-0.2143963E-03  (-0.2923531E-03)
 number of electron      63.9999983 magnetization       6.0439154
 augmentation part        4.3795169 magnetization       3.7089763

 Broyden mixing:
  rms(total) = 0.39086E-01    rms(broyden)= 0.39086E-01
  rms(prec ) = 0.41475E-01
  weight for this iteration     100.00

 eigenvalues of (default mixing * dielectric matrix)
  average eigenvalue GAMMA=   1.5494
 10.8210  2.4780  2.1218  1.2815  1.2815  1.3123  1.3123  0.8748  0.8748  0.4285
  0.4285  0.9776  0.7023  0.7023  0.6750  0.5622  0.5622  0.4920

 Free energy of the ion-electron system (eV)
  ---------------------------------------------------
  alpha Z        PSCENC =        25.76852426
  Ewald energy   TEWEN  =      8063.44724659
  -Hartree energ DENC   =    -11275.41419370
  -exchange      EXHF   =         0.00000000
  -V(xc)+E(xc)   XCENC  =       103.40732466
  PAW double counting   =      1900.59272639    -1965.58864178
  entropy T*S    EENTRO =         0.00000000
  eigenvalues    EBANDS =      -544.23273455
  atomic energy  EATOM  =      3653.83506056
  Solvation  Ediel_sol  =         0.00000000
  ---------------------------------------------------
  free energy    TOTEN  =       -38.18468756 eV

  energy without entropy =      -38.18468756  energy(sigma->0) =      -38.18468756


--------------------------------------------------------------------------------------------------------




--------------------------------------- Iteration      1(  24)  ---------------------------------------


    POTLOK:  cpu time   50.9120: real time   51.0506
    SETDIJ:  cpu time    0.0400: real time    0.0416
     EDDAV:  cpu time   24.5520: real time   24.6487
 BZINTS: Fermi energy: -4.366300; 64.000000 electrons
         Band energy:-543.917409;  BLOECHL correction: -0.004305
       DOS:  cpu time    0.0040: real time    0.0068
    CHARGE:  cpu time    2.0320: real time    2.0790
    MIXING:  cpu time    0.0600: real time    0.0601
    --------------------------------------------
      LOOP:  cpu time   77.6000: real time   77.8868

 eigenvalue-minimisations  :  1056
 total energy-change (2. order) : 0.5363520E-03  (-0.8767578E-04)
 number of electron      63.9999983 magnetization       6.0129868
 augmentation part        4.3574335 magnetization       3.6879145

 Broyden mixing:
  rms(total) = 0.21226E-01    rms(broyden)= 0.21226E-01
  rms(prec ) = 0.22170E-01
  weight for this iteration     100.00

 eigenvalues of (default mixing * dielectric matrix)
  average eigenvalue GAMMA=   1.5521
 10.9565  2.6755  1.8681  1.8681  1.2810  1.2810  1.3051  1.3051  0.8917  0.8917
  0.4285  0.4285  0.6975  0.6975  0.4924  0.5592  0.5592  0.6518  0.6518

 Free energy of the ion-electron system (eV)
  ---------------------------------------------------
[...]
     34      -1.3466      0.00000
     35      -1.1913      0.00000
     36      -0.6158      0.00000
     37      -0.4273      0.00000
     38       0.9330      0.00000
     39       0.9603      0.00000
     40       1.0226      0.00000
     41       1.6081      0.00000
     42       1.6997      0.00000
     43       2.5824      0.00000
     44       2.8493      0.00000
     45       3.2977      0.00000
     46       3.5410      0.00000
     47       3.7862      0.00000
     48       4.0682      0.00000

 k-point     5 :      -0.4000    0.2000    0.0000
  band No.  band energies     occupation 
      1     -18.1431      1.00000
      2     -16.7555      1.00000
      3     -16.5986      1.00000
      4     -16.1836      1.00000
      5     -15.7144      1.00000
      6     -15.5945      1.00000
      7     -12.4160      1.00000
      8     -11.2093      1.00000
      9      -8.9550      1.00000
     10      -8.5325      1.00000
     11      -8.3355      1.00000
     12      -7.8935      1.00000
     13      -7.5694      1.00000
     14      -6.7522      1.00000
     15      -6.4788      1.00000
     16      -6.4065      1.00000
     17      -6.1701      1.00000
     18      -6.1632      1.00000
     19      -6.0804      1.00000
     20      -5.6544      1.00000
     21      -5.5397      1.00000
     22      -4.6274      1.00000
     23      -4.6045      1.00000
     24      -4.4869      1.00000
     25      -4.2276      1.00000
     26      -3.7441      1.00000
     27      -3.4150      1.00000
     28      -3.3849      1.00000
     29      -3.0718      1.00000
     30      -2.9618      1.00000
     31      -2.9335      1.00000
     32      -2.1842      1.00000
     33      -1.7147     -0.03728
     34      -1.3851      0.00000
     35      -1.0136      0.00000
     36      -0.9641      0.00000
     37      -0.3722      0.00000
     38       0.4815      0.00000
     39       0.9127      0.00000
     40       1.0217      0.00000
     41       1.1882      0.00000
     42       1.4908      0.00000
     43       3.1645      0.00000
     44       3.2704      0.00000
     45       3.3928      0.00000
     46       3.6015      0.00000
     47       3.6928      0.00000
     48       4.1138      0.00000


--------------------------------------------------------------------------------------------------------


 soft charge-density along one line, spin component           1
         0         1         2         3         4         5         6         7         8         9
 total charge-density along one line

 soft charge-density along one line, spin component           2
         0         1         2         3         4         5         6         7         8         9
 total charge-density along one line

 pseudopotential strength for first ion, spin component:           1
-10.053  -0.084  -0.000   0.000  -0.000   0.881   0.030   0.000
 -0.084 -10.122   0.000  -0.000   0.000   0.030   0.905  -0.000
 -0.000   0.000  -9.966   0.000   0.000   0.000  -0.000   0.851
  0.000  -0.000   0.000 -10.122   0.084  -0.000   0.000  -0.000
 -0.000   0.000   0.000   0.084 -10.053   0.000  -0.000  -0.000
  0.881   0.030   0.000  -0.000   0.000   0.711  -0.011  -0.000
  0.030   0.905  -0.000   0.000  -0.000  -0.011   0.702   0.000
  0.000  -0.000   0.851  -0.000  -0.000  -0.000   0.000   0.722
 -0.000   0.000  -0.000   0.905  -0.030   0.000  -0.000   0.000
  0.000  -0.000  -0.000  -0.030   0.881  -0.000   0.000   0.000
 -0.000  -0.000  -0.001  -0.000   0.000  -0.000  -0.000   0.001
  0.000   0.000   0.000   0.000  -0.000  -0.000  -0.000  -0.000
 -0.000   0.000   0.000  -0.000   0.002  -0.000   0.000  -0.000
 -0.000  -0.000   0.000  -0.000   0.000  -0.000   0.000   0.000
  0.002  -0.000   0.000   0.000  -0.000  -0.000  -0.000  -0.000
  0.000  -0.000  -0.000   0.000  -0.002  -0.000   0.000   0.000
  0.000   0.000  -0.000   0.000  -0.000  -0.000  -0.000  -0.000
 -0.002   0.000  -0.000  -0.000   0.000   0.000  -0.000   0.000
 pseudopotential strength for first ion, spin component:           2
-10.053  -0.084  -0.000   0.000  -0.000   0.881   0.030   0.000
 -0.084 -10.122   0.000  -0.000   0.000   0.030   0.905  -0.000
 -0.000   0.000  -9.966   0.000   0.000   0.000  -0.000   0.851
  0.000  -0.000   0.000 -10.122   0.084  -0.000   0.000  -0.000
 -0.000   0.000   0.000   0.084 -10.053   0.000  -0.000  -0.000
  0.881   0.030   0.000  -0.000   0.000   0.711  -0.011  -0.000
  0.030   0.905  -0.000   0.000  -0.000  -0.011   0.702   0.000
  0.000  -0.000   0.851  -0.000  -0.000  -0.000   0.000   0.722
 -0.000   0.000  -0.000   0.905  -0.030   0.000  -0.000   0.000
  0.000  -0.000  -0.000  -0.030   0.881  -0.000   0.000   0.000
 -0.000  -0.000  -0.001  -0.000   0.000  -0.000  -0.000   0.001
  0.000   0.000   0.000   0.000  -0.000  -0.000  -0.000  -0.000
 -0.000   0.000   0.000  -0.000   0.002  -0.000   0.000  -0.000
 -0.000  -0.000   0.000  -0.000   0.000  -0.000   0.000   0.000
  0.002  -0.000   0.000   0.000  -0.000  -0.000  -0.000  -0.000
  0.000  -0.000  -0.000   0.000  -0.002  -0.000   0.000   0.000
  0.000   0.000  -0.000   0.000  -0.000  -0.000  -0.000  -0.000
 -0.002   0.000  -0.000  -0.000   0.000   0.000  -0.000   0.000
 total augmentation occupancy for first ion, spin component:           1
  1.683  -0.273   0.000   0.000  -0.000   0.118   0.150   0.000  -0.000   0.000  -0.000  -0.000   0.000   0.000   0.023   0.000
 -0.273   1.442  -0.000  -0.000   0.000   0.151   0.253   0.000   0.000  -0.000   0.000  -0.000   0.000   0.000   0.004   0.000
  0.000  -0.000   1.920  -0.000  -0.000   0.000   0.000  -0.030   0.000  -0.000  -0.003  -0.006  -0.000   0.000   0.000   0.000
  0.000  -0.000  -0.000   1.442   0.273  -0.000  -0.000   0.000   0.253  -0.151  -0.000   0.000  -0.004   0.000   0.000   0.000
 -0.000   0.000  -0.000   0.273   1.683  -0.000  -0.000  -0.000  -0.150   0.118   0.000   0.000   0.023  -0.000  -0.000  -0.000
  0.118   0.151   0.000  -0.000  -0.000   0.139   0.098   0.000  -0.000  -0.000   0.000  -0.000  -0.000   0.000   0.005   0.000
  0.150   0.253   0.000  -0.000  -0.000   0.098   0.223   0.000  -0.000  -0.000   0.000   0.000   0.000  -0.000  -0.003  -0.000
  0.000   0.000  -0.030   0.000  -0.000   0.000   0.000   0.101   0.000  -0.000   0.012  -0.008  -0.000   0.000   0.000   0.000
 -0.000   0.000   0.000   0.253  -0.150  -0.000  -0.000   0.000   0.223  -0.098   0.000  -0.000   0.003   0.000   0.000  -0.000
  0.000  -0.000  -0.000  -0.151   0.118  -0.000  -0.000  -0.000  -0.098   0.139  -0.000   0.000   0.005  -0.000   0.000  -0.003
 -0.000  -0.000  -0.003   0.000   0.000   0.000   0.000   0.012   0.000  -0.000   1.050  -0.364   0.000   0.000   0.000   0.000
 -0.000  -0.000  -0.006   0.000   0.000  -0.000   0.000  -0.008   0.000   0.000  -0.364   0.204   0.000  -0.000  -0.000  -0.000
  0.000   0.000  -0.000  -0.004   0.023  -0.000   0.000  -0.000   0.003   0.005   0.000   0.000   0.216   0.000  -0.000  -0.019
  0.000   0.000   0.000   0.000  -0.000   0.000   0.000   0.000  -0.000  -0.000   0.000  -0.000   0.000   0.218   0.000  -0.000
  0.023   0.004   0.000   0.000  -0.000   0.005  -0.003   0.000   0.000   0.000  -0.000  -0.000  -0.000   0.000   0.216   0.000
  0.000   0.000   0.000   0.000  -0.000   0.000  -0.000   0.000  -0.000  -0.003   0.000  -0.000  -0.019  -0.000   0.000   0.002
  0.000   0.000   0.000   0.000  -0.000  -0.000   0.000  -0.000   0.000   0.000  -0.000   0.000  -0.000  -0.020  -0.000   0.000
 -0.000  -0.000  -0.000   0.000  -0.000  -0.003   0.000  -0.000  -0.000  -0.000  -0.000   0.000  -0.000  -0.000  -0.019  -0.000
 total augmentation occupancy for first ion, spin component:           2
  0.000   0.000   0.000  -0.000   0.000  -0.000  -0.000  -0.000  -0.000  -0.000  -0.000  -0.000   0.000   0.000   0.000   0.000
  0.000   0.000   0.000  -0.000  -0.000  -0.000  -0.000  -0.000  -0.000  -0.000   0.000   0.000   0.000   0.000   0.000   0.000
  0.000   0.000  -0.000   0.000  -0.000  -0.000  -0.000   0.000  -0.000   0.000  -0.000  -0.000  -0.000   0.000   0.000   0.000
 -0.000  -0.000   0.000   0.000  -0.000  -0.000   0.000  -0.000  -0.000   0.000   0.000   0.000  -0.000   0.000   0.000  -0.000
 -0.000  -0.000  -0.000  -0.000   0.000   0.000  -0.000   0.000   0.000  -0.000   0.000   0.000   0.000  -0.000  -0.000  -0.000
 -0.000  -0.000  -0.000  -0.000   0.000   0.000  -0.000   0.000   0.000  -0.000   0.000   0.000   0.000  -0.000  -0.000   0.000
 -0.000  -0.000  -0.000   0.000  -0.000  -0.000   0.000  -0.000  -0.000   0.000   0.000   0.000  -0.000  -0.000   0.000   0.000
 -0.000  -0.000   0.000  -0.000   0.000   0.000  -0.000   0.000   0.000  -0.000   0.000   0.000   0.000  -0.000  -0.000  -0.000
 -0.000  -0.000  -0.000  -0.000   0.000   0.000  -0.000   0.000   0.000   0.000  -0.000   0.000  -0.000   0.000  -0.000  -0.000
 -0.000  -0.000   0.000   0.000  -0.000   0.000   0.000  -0.000   0.000   0.000  -0.000  -0.000  -0.000   0.000  -0.000   0.000
 -0.000  -0.000  -0.000   0.000   0.000   0.000   0.000   0.000   0.000  -0.000  -0.000   0.000   0.000   0.000  -0.000   0.000
 -0.000   0.000  -0.000   0.000   0.000   0.000   0.000   0.000  -0.000  -0.000   0.000  -0.000   0.000   0.000  -0.000   0.000
  0.000   0.000  -0.000  -0.000   0.000   0.000  -0.000   0.000  -0.000  -0.000   0.000   0.000  -0.000  -0.000   0.000   0.000
  0.000   0.000   0.000   0.000  -0.000  -0.000  -0.000  -0.000   0.000   0.000   0.000   0.000  -0.000   0.000   0.000  -0.000
  0.000   0.000   0.000   0.000  -0.000  -0.000   0.000  -0.000  -0.000  -0.000  -0.000  -0.000   0.000   0.000  -0.000   0.000
  0.000   0.000   0.000  -0.000  -0.000   0.000   0.000  -0.000  -0.000   0.000   0.000  -0.000   0.000   0.000   0.000  -0.000
  0.000   0.000   0.000   0.000  -0.000  -0.000  -0.000  -0.000  -0.000   0.000   0.000  -0.000   0.000   0.000   0.000   0.000
 -0.000   0.000  -0.000   0.000  -0.000   0.000   0.000   0.000   0.000  -0.000   0.000   0.000  -0.000   0.000   0.000   0.000


------------------------ aborting loop because EDIFF is reached ----------------------------------------





 total charge     

# of ion       s       p       d       tot
------------------------------------------
    1        0.384   0.500   7.421   8.305
    2        0.384   0.500   7.421   8.305
    3        1.030   1.383   0.000   2.413
    4        1.030   1.383   0.000   2.413
    5        1.386   2.299   0.000   3.685
    6        1.370   2.294   0.000   3.664
    7        1.380   2.298   0.000   3.678
    8        1.386   2.299   0.000   3.685
    9        1.370   2.294   0.000   3.664
   10        1.380   2.298   0.000   3.678
--------------------------------------------------
tot         11.100  17.549  14.842  43.491



 magnetization (x)

# of ion       s       p       d       tot
------------------------------------------
    1        0.000   0.000   0.000   0.000
    2        0.000   0.000   0.000   0.000
    3       -0.000  -0.000   0.000  -0.000
    4       -0.000  -0.000   0.000  -0.000
    5        0.000   0.000   0.000   0.000
    6        0.000   0.000   0.000   0.000
    7        0.000   0.000   0.000   0.000
    8        0.000   0.000   0.000   0.000
    9        0.000   0.000   0.000   0.000
   10        0.000   0.000   0.000   0.000
--------------------------------------------------
tot          0.000   0.000   0.000   0.000

    CHARGE:  cpu time    2.1880: real time    2.2210
    FORLOC:  cpu time    0.0560: real time    0.0580
    FORNL :  cpu time    6.8160: real time    6.9294
    STRESS:  cpu time   20.6040: real time   20.7739
    FORCOR:  cpu time   52.3960: real time   52.6002
    FORHAR:  cpu time    0.3200: real time    0.3210
    MIXING:  cpu time    0.0400: real time    0.0414
    OFIELD:  cpu time    0.0000: real time    0.0000

  FORCE on cell =-STRESS in cart. coord.  units (eV):
  Direction    XX          YY          ZZ          XY          YZ          ZX
  --------------------------------------------------------------------------------------
  Alpha Z    41.55452    41.55452    41.55452
  Ewald   12793.47894 12793.47524-15104.64863    -0.00212    -0.00067    -0.00121
  Hartree 13369.67710 13369.67788-12972.90819    -0.00027     0.00006     0.00010
  E(xc)    -257.79683  -257.79686  -258.02127     0.00003     0.00000     0.00001
  Local  -27123.20374-27123.20253 27058.37926     0.00185     0.00040     0.00073
  n-local   478.12827   481.82269   488.60780     1.82098     0.96503     0.85607
  augment   -29.50167   -29.50152   -34.42712     0.00004    -0.00001     0.00009
  Kinetic   731.18113   719.93677   781.04919    -6.13803    -1.89262    -2.55240
  Fock        0.00000     0.00000     0.00000     0.00000     0.00000     0.00000
  -------------------------------------------------------------------------------------
  Total      -0.25805    -0.25805    -0.41445    -0.00000     0.00000     0.00000
  in kB      -0.68817    -0.68817    -1.10525    -0.00000     0.00000     0.00000
  external pressure =       -0.83 kB  Pullay stress =        0.00 kB


 VOLUME and BASIS-vectors are now :
 -----------------------------------------------------------------------------
  energy-cutoff  :      520.00
  volume of cell :      600.79
      direct lattice vectors                 reciprocal lattice vectors
     5.820474748  0.000000156 -0.000000000     0.171807294 -0.099192976 -0.000000000
     2.910236984  5.040678885  0.000000000    -0.000000005  0.198385979  0.000000000
     0.000000000 -0.000000000 20.477347987     0.000000000 -0.000000000  0.048834449

  length of vectors
     5.820474748  5.820474458 20.477347987     0.198385969  0.198385979  0.048834449


 FORCES acting on ions
    electron-ion (+dipol)            ewald-force                    non-local-force                 convergence-correction
 -----------------------------------------------------------------------------------------------
   -.213E-03 -.134E-03 0.269E+00   0.863E-03 0.507E-03 -.271E+00   -.737E-17 -.136E-20 0.448E-02   0.191E-06 0.104E-06 -.127E-03
   0.213E-03 0.134E-03 -.269E+00   -.863E-03 -.507E-03 0.271E+00   -.434E-18 0.136E-20 -.448E-02   -.191E-06 -.104E-06 0.127E-03
   -.541E-04 -.996E-05 0.365E+03   -.288E-03 -.162E-03 -.365E+03   -.346E-16 -.224E-18 0.738E+00   0.141E-08 -.401E-08 0.597E-02
   0.541E-04 0.996E-05 -.365E+03   0.288E-03 0.162E-03 0.365E+03   -.279E-16 0.224E-18 -.738E+00   -.141E-08 0.401E-08 -.597E-02
   -.112E+02 0.753E-02 -.579E+03   0.825E+01 -.671E-02 0.583E+03   0.293E+01 -.275E-02 -.404E+01   -.135E-01 -.596E-04 -.147E-01
   0.560E+01 0.968E+01 -.579E+03   -.413E+01 -.714E+01 0.583E+03   -.147E+01 -.254E+01 -.404E+01   0.670E-02 0.117E-01 -.147E-01
   0.558E+01 -.969E+01 -.579E+03   -.412E+01 0.715E+01 0.583E+03   -.146E+01 0.254E+01 -.404E+01   0.681E-02 -.117E-01 -.147E-01
   0.112E+02 -.753E-02 0.579E+03   -.825E+01 0.671E-02 -.583E+03   -.293E+01 0.275E-02 0.404E+01   0.135E-01 0.596E-04 0.147E-01
   -.560E+01 -.968E+01 0.579E+03   0.413E+01 0.714E+01 -.583E+03   0.147E+01 0.254E+01 0.404E+01   -.670E-02 -.117E-01 0.147E-01
   -.558E+01 0.969E+01 0.579E+03   0.412E+01 -.715E+01 -.583E+03   0.146E+01 -.254E+01 0.404E+01   -.681E-02 0.117E-01 0.147E-01
 -----------------------------------------------------------------------------------------------
   0.292E-10 0.789E-10 0.608E-10   -.151E-13 -.355E-14 0.000E+00   0.444E-15 0.000E+00 -.888E-15   -.734E-13 0.115E-12 0.133E-10


 POSITION                                       TOTAL-FORCE (eV/Angst)
 -----------------------------------------------------------------------------------
      2.91023      1.68022     10.23834        -0.000000     -0.000000      0.001445
      5.82048      3.36045     10.23901        -0.000000      0.000000     -0.001445
      0.00000     -0.00000      9.11487        -0.000000     -0.000000      0.042063
      0.00000     -0.00000     11.36247        -0.000000      0.000000     -0.042063
      3.70602      0.00030     11.62287        -0.005238     -0.001167     -0.028249
      1.05749      1.83103     11.62287         0.001608      0.005120     -0.028249
      3.96721      3.20936     11.62287         0.003630     -0.003953     -0.028249
      5.02469      5.04038      8.85448         0.005238      0.001167      0.028249
      7.67322      3.20965      8.85448        -0.001608     -0.005120      0.028249
      4.76350      1.83132      8.85448        -0.003630      0.003953      0.028249
 -----------------------------------------------------------------------------------
    total drift:                                0.000000      0.000000      0.000000


--------------------------------------------------------------------------------------------------------



  FREE ENERGIE OF THE ION-ELECTRON SYSTEM (eV)
  ---------------------------------------------------
  free  energy   TOTEN  =       -47.80276726 eV

  energy  without entropy=      -47.80276726  energy(sigma->0) =      -47.80276726

 d Force =-0.3989927E-04[-0.421E-04,-0.377E-04]  d Energy = 0.1051925E-02-0.109E-02
 d Force = 0.3244875E+00[ 0.325E+00, 0.324E+00]  d Ewald  =-0.1213094E+02 0.125E+02


--------------------------------------------------------------------------------------------------------


    POTLOK:  cpu time   52.2120: real time   52.7577


--------------------------------------------------------------------------------------------------------




--------------------------------------------------------------------------------------------------------


  
 reached required accuracy - stopping structural energy minimisation
     LOOP+:  cpu time  535.5480: real time  539.5370
    4ORBIT:  cpu time    0.0000: real time    0.0000



 total charge     

# of ion       s       p       d       tot
------------------------------------------
    1        0.384   0.500   7.421   8.305
    2        0.384   0.500   7.421   8.305
    3        1.030   1.383   0.000   2.413
    4        1.030   1.383   0.000   2.413
    5        1.386   2.299   0.000   3.685
    6        1.370   2.294   0.000   3.664
    7        1.380   2.298   0.000   3.678
    8        1.386   2.299   0.000   3.685
    9        1.370   2.294   0.000   3.664
   10        1.380   2.298   0.000   3.678
--------------------------------------------------
tot         11.100  17.549  14.842  43.491



 magnetization (x)

# of ion       s       p       d       tot
------------------------------------------
    1        0.000   0.000   0.000   0.000
    2        0.000   0.000   0.000   0.000
    3       -0.000  -0.000   0.000  -0.000
    4       -0.000  -0.000   0.000  -0.000
    5        0.000   0.000   0.000   0.000
    6        0.000   0.000   0.000   0.000
    7        0.000   0.000   0.000   0.000
    8        0.000   0.000   0.000   0.000
    9        0.000   0.000   0.000   0.000
   10        0.000   0.000   0.000   0.000
--------------------------------------------------
tot          0.000   0.000   0.000   0.000

 BZINTS: Fermi energy: -1.837302; 64.000000 electrons
         Band energy:-505.497817;  BLOECHL correction: -0.022641

 total amount of memory used by VASP MPI-rank0   130402. kBytes
=======================================================================

   base      :      30000. kBytes
   nonlr-proj:      10107. kBytes
   fftplans  :      11247. kBytes
   grid      :      66142. kBytes
   one-center:        311. kBytes
   wavefun   :      12595. kBytes

  
  
 General timing and accounting informations for this job:
 ========================================================
  
                  Total CPU time used (sec):    14159.400
                            User time (sec):    13832.768
                          System time (sec):      326.632
                         Elapsed time (sec):    14266.066
  
                   Maximum memory used (kb):      384188.
                   Average memory used (kb):           0.
  
                          Minor page faults:     13937002
                          Major page faults:            7
                 Voluntary context switches:         1044
