  10  10   1   0
  0.9688350E+02  0.6907777E-09  0.6907777E-09  0.2344459E-08  0.5000000E-15
   1.0000000000000000E-004
  CAR 
 unknown system                          
      5.41049769    -19.01475518  301     -1.88260567      1.00000000
    -19.015  0.0000E+00  0.0000E+00  0.0000E+00  0.0000E+00
    -18.933  0.0000E+00  0.0000E+00  0.0000E+00  0.0000E+00
    -18.852  0.0000E+00  0.0000E+00  0.0000E+00  0.0000E+00
    -18.771  0.0000E+00  0.0000E+00  0.0000E+00  0.0000E+00
    -18.689  0.0000E+00  0.0000E+00  0.0000E+00  0.0000E+00
    -18.608  0.0000E+00  0.0000E+00  0.0000E+00  0.0000E+00
    -18.526  0.0000E+00  0.0000E+00  0.0000E+00  0.0000E+00
    -18.445  0.0000E+00  0.0000E+00  0.0000E+00  0.0000E+00
    -18.363  0.0000E+00  0.0000E+00  0.0000E+00  0.0000E+00
    -18.282  0.0000E+00  0.0000E+00  0.0000E+00  0.0000E+00
    -18.201  0.0000E+00  0.0000E+00  0.0000E+00  0.0000E+00
    -18.119  0.0000E+00  0.0000E+00  0.0000E+00  0.0000E+00
    -18.038  0.0000E+00  0.0000E+00  0.0000E+00  0.0000E+00
    -17.956  0.0000E+00  0.0000E+00  0.0000E+00  0.0000E+00
    -17.875  0.0000E+00  0.5371E-02  0.0000E+00  0.7951E-04
    -17.793  0.1346E-01  0.2014E-01  0.5317E-03  0.1118E-02
    -17.712  0.1360E-01  0.1543E-01  0.1744E-02  0.2296E-02
    -17.631  0.1619E-01  0.1826E-01  0.2957E-02  0.3667E-02
    -17.549  0.2031E-01  0.3378E-01  0.4386E-02  0.5585E-02
    -17.468  0.4845E-01  0.2786E-01  0.7275E-02  0.9145E-02
    -17.386  0.0000E+00  0.0000E+00  0.1010E-01  0.1010E-01
    -17.305  0.0000E+00  0.0000E+00  0.1010E-01  0.1010E-01
    -17.224  0.0000E+00  0.0000E+00  0.1010E-01  0.1010E-01
    -17.142  0.0000E+00  0.0000E+00  0.1010E-01  0.1010E-01
    -17.061  0.0000E+00  0.0000E+00  0.1010E-01  0.1010E-01
    -16.979  0.0000E+00  0.0000E+00  0.1010E-01  0.1010E-01
    -16.898  0.0000E+00  0.0000E+00  0.1010E-01  0.1010E-01
    -16.816  0.0000E+00  0.0000E+00  0.1010E-01  0.1010E-01
    -16.735  0.0000E+00  0.0000E+00  0.1010E-01  0.1010E-01
    -16.654  0.0000E+00  0.0000E+00  0.1010E-01  0.1010E-01
    -16.572  0.0000E+00  0.0000E+00  0.1010E-01  0.1010E-01
    -16.491  0.0000E+00  0.0000E+00  0.1010E-01  0.1010E-01
    -16.409  0.9157E-02  0.1674E-01  0.1027E-01  0.1068E-01
    -16.328  0.1729E-01  0.1988E-01  0.1163E-01  0.1220E-01
    -16.247  0.2507E-01  0.2751E-01  0.1336E-01  0.1413E-01
    -16.165  0.1117E+00  0.0000E+00  0.1926E-01  0.2020E-01
    -16.084  0.0000E+00  0.0000E+00  0.2020E-01  0.2020E-01
    -16.002  0.4234E-01  0.4905E-01  0.2078E-01  0.2239E-01
    -15.921  0.4369E-01  0.1404E-01  0.2548E-01  0.2656E-01
    -15.839  0.1271E-01  0.3734E-01  0.2698E-01  0.2869E-01
    -15.758  0.3654E-01  0.4347E-01  0.2969E-01  0.3198E-01
    -15.677  0.4312E-01  0.5423E-01  0.3289E-01  0.3599E-01
    -15.595  0.3732E-01  0.2214E-01  0.3667E-01  0.3867E-01
    -15.514  0.1810E-01  0.5068E-02  0.3892E-01  0.4038E-01
    -15.432  0.4538E-01  0.3779E-01  0.4122E-01  0.4379E-01
    -15.351  0.3042E-01  0.2150E-01  0.4517E-01  0.4620E-01
    -15.270  0.5317E-01  0.6622E-01  0.4788E-01  0.5002E-01
    -15.188  0.7922E-01  0.4832E-01  0.5370E-01  0.5547E-01
    -15.107  0.4056E-01  0.3024E-01  0.5756E-01  0.5879E-01
    -15.025  0.1989E-01  0.3499E-02  0.6017E-01  0.6059E-01
    -14.944  0.0000E+00  0.0000E+00  0.6061E-01  0.6061E-01
    -14.862  0.0000E+00  0.0000E+00  0.6061E-01  0.6061E-01
    -14.781  0.0000E+00  0.0000E+00  0.6061E-01  0.6061E-01
    -14.700  0.0000E+00  0.0000E+00  0.6061E-01  0.6061E-01
    -14.618  0.0000E+00  0.0000E+00  0.6061E-01  0.6061E-01
    -14.537  0.0000E+00  0.0000E+00  0.6061E-01  0.6061E-01
    -14.455  0.0000E+00  0.0000E+00  0.6061E-01  0.6061E-01
    -14.374  0.0000E+00  0.0000E+00  0.6061E-01  0.6061E-01
    -14.293  0.0000E+00  0.0000E+00  0.6061E-01  0.6061E-01
    -14.211  0.0000E+00  0.0000E+00  0.6061E-01  0.6061E-01
    -14.130  0.0000E+00  0.0000E+00  0.6061E-01  0.6061E-01
    -14.048  0.0000E+00  0.0000E+00  0.6061E-01  0.6061E-01
    -13.967  0.0000E+00  0.0000E+00  0.6061E-01  0.6061E-01
    -13.885  0.0000E+00  0.0000E+00  0.6061E-01  0.6061E-01
    -13.804  0.0000E+00  0.0000E+00  0.6061E-01  0.6061E-01
    -13.723  0.0000E+00  0.0000E+00  0.6061E-01  0.6061E-01
    -13.641  0.0000E+00  0.0000E+00  0.6061E-01  0.6061E-01
    -13.560  0.0000E+00  0.0000E+00  0.6061E-01  0.6061E-01
    -13.478  0.0000E+00  0.0000E+00  0.6061E-01  0.6061E-01
    -13.397  0.0000E+00  0.0000E+00  0.6061E-01  0.6061E-01
    -13.316  0.0000E+00  0.0000E+00  0.6061E-01  0.6061E-01
    -13.234  0.0000E+00  0.0000E+00  0.6061E-01  0.6061E-01
    -13.153  0.0000E+00  0.0000E+00  0.6061E-01  0.6061E-01
    -13.071  0.0000E+00  0.0000E+00  0.6061E-01  0.6061E-01
    -12.990  0.0000E+00  0.0000E+00  0.6061E-01  0.6061E-01
    -12.908  0.0000E+00  0.0000E+00  0.6061E-01  0.6061E-01
    -12.827  0.0000E+00  0.0000E+00  0.6061E-01  0.6061E-01
    -12.746  0.2397E-02  0.2617E-02  0.6066E-01  0.6066E-01
    -12.664  0.6883E-02  0.7548E-02  0.6104E-01  0.6108E-01
    -12.583  0.1137E-01  0.9325E-02  0.6178E-01  0.6187E-01
    -12.501  0.1079E-01  0.1161E-01  0.6258E-01  0.6273E-01
    -12.420  0.1292E-01  0.1389E-01  0.6355E-01  0.6376E-01
    -12.339  0.1505E-01  0.1617E-01  0.6468E-01  0.6499E-01
    -12.257  0.4003E-01  0.3772E-01  0.6663E-01  0.6752E-01
    -12.176  0.2422E-01  0.1974E-01  0.6924E-01  0.6985E-01
    -12.094  0.0000E+00  0.0000E+00  0.7071E-01  0.7071E-01
    -12.013  0.0000E+00  0.0000E+00  0.7071E-01  0.7071E-01
    -11.931  0.0000E+00  0.0000E+00  0.7071E-01  0.7071E-01
    -11.850  0.0000E+00  0.0000E+00  0.7071E-01  0.7071E-01
    -11.769  0.0000E+00  0.0000E+00  0.7071E-01  0.7071E-01
    -11.687  0.0000E+00  0.0000E+00  0.7071E-01  0.7071E-01
    -11.606  0.0000E+00  0.0000E+00  0.7071E-01  0.7071E-01
    -11.524  0.0000E+00  0.0000E+00  0.7071E-01  0.7071E-01
    -11.443  0.0000E+00  0.0000E+00  0.7071E-01  0.7071E-01
    -11.362  0.0000E+00  0.0000E+00  0.7071E-01  0.7071E-01
    -11.280  0.0000E+00  0.0000E+00  0.7071E-01  0.7071E-01
    -11.199  0.0000E+00  0.0000E+00  0.7071E-01  0.7071E-01
    -11.117  0.0000E+00  0.0000E+00  0.7071E-01  0.7071E-01
    -11.036  0.0000E+00  0.0000E+00  0.7071E-01  0.7071E-01
    -10.954  0.0000E+00  0.0000E+00  0.7071E-01  0.7071E-01
    -10.873  0.0000E+00  0.0000E+00  0.7071E-01  0.7071E-01
    -10.792  0.0000E+00  0.0000E+00  0.7071E-01  0.7071E-01
    -10.710  0.0000E+00  0.0000E+00  0.7071E-01  0.7071E-01
    -10.629  0.0000E+00  0.0000E+00  0.7071E-01  0.7071E-01
    -10.547  0.0000E+00  0.0000E+00  0.7071E-01  0.7071E-01
    -10.466  0.1684E+00  0.1155E+00  0.7275E-01  0.7143E-01
    -10.384  0.2039E-01  0.2068E-01  0.8006E-01  0.8019E-01
    -10.303  0.0000E+00  0.0000E+00  0.8081E-01  0.8081E-01
    -10.222  0.0000E+00  0.0000E+00  0.8081E-01  0.8081E-01
    -10.140  0.0000E+00  0.0000E+00  0.8081E-01  0.8081E-01
    -10.059  0.0000E+00  0.0000E+00  0.8081E-01  0.8081E-01
     -9.977  0.0000E+00  0.0000E+00  0.8081E-01  0.8081E-01
     -9.896  0.0000E+00  0.0000E+00  0.8081E-01  0.8081E-01
     -9.815  0.0000E+00  0.0000E+00  0.8081E-01  0.8081E-01
     -9.733  0.0000E+00  0.0000E+00  0.8081E-01  0.8081E-01
     -9.652  0.0000E+00  0.0000E+00  0.8081E-01  0.8081E-01
     -9.570  0.0000E+00  0.0000E+00  0.8081E-01  0.8081E-01
     -9.489  0.0000E+00  0.0000E+00  0.8081E-01  0.8081E-01
     -9.407  0.0000E+00  0.0000E+00  0.8081E-01  0.8081E-01
     -9.326  0.0000E+00  0.0000E+00  0.8081E-01  0.8081E-01
     -9.245  0.0000E+00  0.0000E+00  0.8081E-01  0.8081E-01
     -9.163  0.0000E+00  0.0000E+00  0.8081E-01  0.8081E-01
     -9.082  0.0000E+00  0.0000E+00  0.8081E-01  0.8081E-01
     -9.000  0.0000E+00  0.0000E+00  0.8081E-01  0.8081E-01
     -8.919  0.0000E+00  0.0000E+00  0.8081E-01  0.8081E-01
     -8.838  0.0000E+00  0.0000E+00  0.8081E-01  0.8081E-01
     -8.756  0.0000E+00  0.0000E+00  0.8081E-01  0.8081E-01
     -8.675  0.5398E+00  0.0000E+00  0.8166E-01  0.8081E-01
     -8.593  0.3634E-01  0.3941E-01  0.8618E-01  0.8350E-01
     -8.512  0.5213E-01  0.3594E-01  0.8995E-01  0.8639E-01
     -8.430  0.6398E-02  0.4026E-01  0.9163E-01  0.9012E-01
     -8.349  0.5846E-02  0.6283E-02  0.9220E-01  0.9168E-01
     -8.268  0.7641E-02  0.6166E-02  0.9275E-01  0.9223E-01
     -8.186  0.1029E-01  0.7733E-02  0.9345E-01  0.9280E-01
     -8.105  0.2858E-01  0.9301E-02  0.9503E-01  0.9349E-01
     -8.023  0.8189E-01  0.2776E-01  0.9950E-01  0.9475E-01
     -7.942  0.4708E-01  0.1607E+00  0.1054E+00  0.9893E-01
     -7.861  0.2764E-01  0.1561E-01  0.1081E+00  0.1039E+00
     -7.779  0.6872E-01  0.3824E-01  0.1112E+00  0.1076E+00
     -7.698  0.1033E-01  0.5379E-01  0.1154E+00  0.1118E+00
     -7.616  0.1166E-01  0.1078E-01  0.1163E+00  0.1152E+00
     -7.535  0.1329E-01  0.1204E-01  0.1173E+00  0.1162E+00
     -7.453  0.1491E-01  0.1330E-01  0.1185E+00  0.1172E+00
     -7.372  0.2378E-01  0.1456E-01  0.1202E+00  0.1183E+00
     -7.291  0.1698E-01  0.2795E-01  0.1218E+00  0.1200E+00
     -7.209  0.1077E-01  0.1589E-01  0.1230E+00  0.1218E+00
     -7.128  0.7494E-02  0.5492E-02  0.1240E+00  0.1229E+00
     -7.046  0.8340E-02  0.6375E-02  0.1246E+00  0.1234E+00
     -6.965  0.1885E-01  0.7258E-02  0.1263E+00  0.1239E+00
     -6.884  0.2463E-01  0.1564E-01  0.1281E+00  0.1251E+00
     -6.802  0.2905E-01  0.1917E-01  0.1303E+00  0.1265E+00
     -6.721  0.3346E-01  0.2269E-01  0.1329E+00  0.1282E+00
     -6.639  0.9656E-02  0.2792E-01  0.1347E+00  0.1303E+00
     -6.558  0.9883E-01  0.3230E-01  0.1375E+00  0.1328E+00
     -6.476  0.9489E-02  0.8487E-02  0.1414E+00  0.1341E+00
     -6.395  0.2350E+00  0.9801E-02  0.1467E+00  0.1349E+00
     -6.314  0.7203E-01  0.3589E-01  0.1565E+00  0.1392E+00
     -6.232  0.1321E-01  0.5269E-01  0.1588E+00  0.1418E+00
     -6.151  0.7053E-01  0.9091E-01  0.1609E+00  0.1482E+00
     -6.069  0.4588E-01  0.9315E-01  0.1683E+00  0.1568E+00
     -5.988  0.4871E-01  0.1235E-01  0.1721E+00  0.1581E+00
     -5.907  0.4705E-01  0.1081E-01  0.1761E+00  0.1591E+00
     -5.825  0.2197E-01  0.3877E-01  0.1800E+00  0.1655E+00
     -5.744  0.6374E-01  0.2408E-01  0.1823E+00  0.1678E+00
     -5.662  0.2808E-01  0.6199E-01  0.1854E+00  0.1717E+00
     -5.581  0.9328E-01  0.4372E-01  0.1883E+00  0.1759E+00
     -5.499  0.5373E-01  0.7403E-01  0.1941E+00  0.1813E+00
     -5.418  0.2751E-01  0.4929E-01  0.1968E+00  0.1858E+00
     -5.337  0.7697E-01  0.2221E-01  0.2038E+00  0.1882E+00
     -5.255  0.2479E-01  0.4564E-01  0.2071E+00  0.1903E+00
     -5.174  0.1247E-01  0.4160E-01  0.2100E+00  0.1959E+00
     -5.092  0.8763E-02  0.6987E-01  0.2109E+00  0.2024E+00
     -5.011  0.5995E-02  0.3907E-01  0.2114E+00  0.2071E+00
     -4.930  0.6027E-01  0.1320E-01  0.2127E+00  0.2105E+00
     -4.848  0.3812E-01  0.1011E-01  0.2180E+00  0.2114E+00
     -4.767  0.3727E-01  0.3500E-01  0.2213E+00  0.2122E+00
     -4.685  0.3108E-01  0.3846E-01  0.2249E+00  0.2183E+00
     -4.604  0.3823E-01  0.3325E-01  0.2280E+00  0.2204E+00
     -4.522  0.3678E-01  0.6247E-01  0.2316E+00  0.2273E+00
     -4.441  0.6227E-01  0.2313E-01  0.2341E+00  0.2301E+00
     -4.360  0.8106E-01  0.2096E-01  0.2410E+00  0.2319E+00
     -4.278  0.6143E-01  0.4426E-01  0.2465E+00  0.2367E+00
     -4.197  0.7759E-02  0.1733E-01  0.2508E+00  0.2391E+00
     -4.115  0.6358E-02  0.1760E-01  0.2514E+00  0.2405E+00
     -4.034  0.4958E-02  0.3083E-01  0.2518E+00  0.2419E+00
     -3.953  0.3557E-02  0.2360E+00  0.2522E+00  0.2486E+00
     -3.871  0.4653E-01  0.8278E-02  0.2536E+00  0.2517E+00
     -3.790  0.1444E-01  0.5083E-02  0.2590E+00  0.2522E+00
     -3.708  0.1202E-01  0.1887E-02  0.2600E+00  0.2525E+00
     -3.627  0.1020E+00  0.0000E+00  0.2644E+00  0.2525E+00
     -3.545  0.4541E-01  0.0000E+00  0.2711E+00  0.2525E+00
     -3.464  0.4119E-01  0.0000E+00  0.2753E+00  0.2525E+00
     -3.383  0.3346E-01  0.0000E+00  0.2825E+00  0.2525E+00
     -3.301  0.0000E+00  0.0000E+00  0.2828E+00  0.2525E+00
     -3.220  0.4897E-01  0.0000E+00  0.2941E+00  0.2525E+00
     -3.138  0.0000E+00  0.0000E+00  0.3030E+00  0.2525E+00
     -3.057  0.5905E-01  0.0000E+00  0.3059E+00  0.2525E+00
     -2.976  0.0000E+00  0.0000E+00  0.3131E+00  0.2525E+00
     -2.894  0.0000E+00  0.0000E+00  0.3131E+00  0.2525E+00
     -2.813  0.0000E+00  0.0000E+00  0.3131E+00  0.2525E+00
     -2.731  0.0000E+00  0.1178E-01  0.3131E+00  0.2536E+00
     -2.650  0.0000E+00  0.1726E-01  0.3131E+00  0.2548E+00
     -2.568  0.0000E+00  0.2275E-01  0.3131E+00  0.2564E+00
     -2.487  0.0000E+00  0.1041E-01  0.3131E+00  0.2577E+00
     -2.406  0.0000E+00  0.6554E-02  0.3131E+00  0.2584E+00
     -2.324  0.0000E+00  0.6187E-02  0.3131E+00  0.2589E+00
     -2.243  0.0000E+00  0.5820E-02  0.3131E+00  0.2594E+00
     -2.161  0.0000E+00  0.5453E-02  0.3131E+00  0.2598E+00
     -2.080  0.0000E+00  0.5085E-02  0.3131E+00  0.2603E+00
     -1.998  0.0000E+00  0.4718E-02  0.3131E+00  0.2607E+00
     -1.917  0.2040E-01  0.4351E-02  0.3136E+00  0.2610E+00
     -1.836  0.5386E-01  0.3983E-02  0.3167E+00  0.2614E+00
     -1.754  0.1573E-01  0.6677E-02  0.3217E+00  0.2620E+00
     -1.673  0.4431E-02  0.3981E-02  0.3223E+00  0.2624E+00
     -1.591  0.3586E-02  0.2492E-01  0.3226E+00  0.2641E+00
     -1.510  0.2161E-01  0.5103E-01  0.3235E+00  0.2675E+00
     -1.429  0.2504E-01  0.4593E-01  0.3254E+00  0.2715E+00
     -1.347  0.3274E-01  0.1171E+00  0.3285E+00  0.2776E+00
     -1.266  0.1802E-01  0.8474E-01  0.3306E+00  0.2832E+00
     -1.184  0.4201E-01  0.4118E-01  0.3354E+00  0.2895E+00
     -1.103  0.1060E+00  0.1191E-01  0.3414E+00  0.2920E+00
     -1.021  0.0000E+00  0.5606E-02  0.3434E+00  0.2927E+00
     -0.940  0.9230E-01  0.2673E-01  0.3506E+00  0.2931E+00
     -0.859  0.1999E-02  0.7432E-01  0.3535E+00  0.2998E+00
     -0.777  0.2395E-01  0.5509E-01  0.3554E+00  0.3057E+00
     -0.696  0.3510E-01  0.4433E-01  0.3578E+00  0.3098E+00
     -0.614  0.4793E-01  0.2238E+00  0.3635E+00  0.3216E+00
     -0.533  0.9327E-03  0.2465E-03  0.3637E+00  0.3232E+00
     -0.452  0.1690E-02  0.2694E-01  0.3638E+00  0.3242E+00
     -0.370  0.2446E-02  0.6501E-01  0.3640E+00  0.3273E+00
     -0.289  0.3203E-02  0.3495E-01  0.3642E+00  0.3314E+00
     -0.207  0.3960E-02  0.5089E-01  0.3645E+00  0.3349E+00
     -0.126  0.4717E-02  0.1225E+00  0.3648E+00  0.3378E+00
     -0.044  0.0000E+00  0.1134E-01  0.3737E+00  0.3434E+00
      0.037  0.0000E+00  0.4407E-01  0.3737E+00  0.3454E+00
      0.118  0.0000E+00  0.7110E-01  0.3737E+00  0.3508E+00
      0.200  0.0000E+00  0.1307E-01  0.3737E+00  0.3530E+00
      0.281  0.0000E+00  0.3466E-01  0.3737E+00  0.3653E+00
      0.363  0.0000E+00  0.1206E-01  0.3737E+00  0.3662E+00
      0.444  0.0000E+00  0.1397E-01  0.3737E+00  0.3673E+00
      0.525  0.1326E-01  0.4396E-01  0.3749E+00  0.3688E+00
      0.607  0.2112E-01  0.0000E+00  0.3763E+00  0.3737E+00
      0.688  0.1509E-01  0.0000E+00  0.3779E+00  0.3737E+00
      0.770  0.1684E-01  0.2611E-01  0.3792E+00  0.3752E+00
      0.851  0.8545E-01  0.2032E-01  0.3813E+00  0.3775E+00
      0.933  0.2406E-01  0.2107E-01  0.3866E+00  0.3792E+00
      1.014  0.6315E-01  0.2181E-01  0.3901E+00  0.3810E+00
      1.095  0.1722E-01  0.9820E-01  0.3920E+00  0.3861E+00
      1.177  0.1180E-01  0.2109E-01  0.3931E+00  0.3899E+00
      1.258  0.6373E-02  0.1703E-01  0.3939E+00  0.3914E+00
      1.340  0.0000E+00  0.1297E-01  0.3939E+00  0.3927E+00
      1.421  0.0000E+00  0.8919E-02  0.3939E+00  0.3936E+00
      1.502  0.1035E+00  0.0000E+00  0.3985E+00  0.3939E+00
      1.584  0.1274E-01  0.0000E+00  0.4029E+00  0.3939E+00
      1.665  0.7109E-02  0.1888E+00  0.4037E+00  0.3952E+00
      1.747  0.1143E-01  0.3468E-01  0.4047E+00  0.4020E+00
      1.828  0.2134E-01  0.0000E+00  0.4064E+00  0.4040E+00
      1.910  0.2735E-01  0.0000E+00  0.4084E+00  0.4040E+00
      1.991  0.3336E-01  0.0000E+00  0.4109E+00  0.4040E+00
      2.072  0.4498E-01  0.2467E-01  0.4143E+00  0.4057E+00
      2.154  0.4709E-01  0.4327E-01  0.4181E+00  0.4085E+00
      2.235  0.1393E-01  0.1410E+00  0.4203E+00  0.4143E+00
      2.317  0.1185E-01  0.2185E-01  0.4214E+00  0.4185E+00
      2.398  0.9757E-02  0.2732E-01  0.4223E+00  0.4205E+00
      2.479  0.4139E-01  0.3078E-01  0.4239E+00  0.4228E+00
      2.561  0.0000E+00  0.0000E+00  0.4242E+00  0.4242E+00
      2.642  0.0000E+00  0.0000E+00  0.4242E+00  0.4242E+00
      2.724  0.5234E-01  0.5681E-01  0.4289E+00  0.4258E+00
      2.805  0.2426E-01  0.2625E-01  0.4321E+00  0.4288E+00
      2.887  0.2660E-01  0.5521E-01  0.4342E+00  0.4322E+00
      2.968  0.2475E-01  0.3166E-01  0.4363E+00  0.4355E+00
      3.049  0.2265E-01  0.2521E-01  0.4382E+00  0.4378E+00
      3.131  0.2595E-01  0.2858E-01  0.4403E+00  0.4398E+00
      3.212  0.6790E-01  0.2146E-01  0.4439E+00  0.4424E+00
      3.294  0.5008E-01  0.2166E-01  0.4497E+00  0.4441E+00
      3.375  0.7887E-01  0.2174E-01  0.4538E+00  0.4458E+00
      3.456  0.7418E-02  0.3224E-01  0.4560E+00  0.4485E+00
      3.538  0.1094E-01  0.2820E-01  0.4567E+00  0.4510E+00
      3.619  0.1214E+00  0.2186E-01  0.4592E+00  0.4542E+00
      3.701  0.2871E-01  0.1500E+00  0.4627E+00  0.4625E+00
      3.782  0.5692E-01  0.2567E-02  0.4686E+00  0.4646E+00
      3.864  0.0000E+00  0.3279E-01  0.4747E+00  0.4670E+00
      3.945  0.0000E+00  0.2733E-01  0.4747E+00  0.4695E+00
      4.026  0.7969E-01  0.4722E-01  0.4755E+00  0.4723E+00
      4.108  0.3270E-01  0.4155E-01  0.4803E+00  0.4773E+00
      4.189  0.2328E-01  0.1898E-01  0.4826E+00  0.4823E+00
      4.271  0.1386E-01  0.2015E-01  0.4841E+00  0.4839E+00
      4.352  0.0000E+00  0.0000E+00  0.4848E+00  0.4848E+00
      4.433  0.0000E+00  0.0000E+00  0.4848E+00  0.4848E+00
      4.515  0.0000E+00  0.0000E+00  0.4848E+00  0.4848E+00
      4.596  0.0000E+00  0.0000E+00  0.4848E+00  0.4848E+00
      4.678  0.0000E+00  0.0000E+00  0.4848E+00  0.4848E+00
      4.759  0.0000E+00  0.0000E+00  0.4848E+00  0.4848E+00
      4.841  0.0000E+00  0.0000E+00  0.4848E+00  0.4848E+00
      4.922  0.0000E+00  0.0000E+00  0.4848E+00  0.4848E+00
      5.003  0.0000E+00  0.0000E+00  0.4848E+00  0.4848E+00
      5.085  0.0000E+00  0.0000E+00  0.4848E+00  0.4848E+00
      5.166  0.0000E+00  0.0000E+00  0.4848E+00  0.4848E+00
      5.248  0.0000E+00  0.0000E+00  0.4848E+00  0.4848E+00
      5.329  0.0000E+00  0.0000E+00  0.4848E+00  0.4848E+00
      5.410  0.0000E+00  0.0000E+00  0.4848E+00  0.4848E+00
      5.41049769    -19.01475518  301     -1.88260567      1.00000000
    -19.015  0.0000E+00  0.0000E+00  0.0000E+00  0.0000E+00  0.0000E+00  0.0000E+00  0.0000E+00  0.0000E+00  0.0000E+00  0.0000E+00  0.0000E+00  0.0000E+00  0.0000E+00  0.0000E+00  0.0000E+00  0.0000E+00  0.0000E+00  0.0000E+00
    -18.933  0.0000E+00  0.0000E+00  0.0000E+00  0.0000E+00  0.0000E+00  0.0000E+00  0.0000E+00  0.0000E+00  0.0000E+00  0.0000E+00  0.0000E+00  0.0000E+00  0.0000E+00  0.0000E+00  0.0000E+00  0.0000E+00  0.0000E+00  0.0000E+00
    -18.852  0.0000E+00  0.0000E+00  0.0000E+00  0.0000E+00  0.0000E+00  0.0000E+00  0.0000E+00  0.0000E+00  0.0000E+00  0.0000E+00  0.0000E+00  0.0000E+00  0.0000E+00  0.0000E+00  0.0000E+00  0.0000E+00  0.0000E+00  0.0000E+00
    -18.771  0.0000E+00  0.0000E+00  0.0000E+00  0.0000E+00  0.0000E+00  0.0000E+00  0.0000E+00  0.0000E+00  0.0000E+00  0.0000E+00  0.0000E+00  0.0000E+00  0.0000E+00  0.0000E+00  0.0000E+00  0.0000E+00  0.0000E+00  0.0000E+00
    -18.689  0.0000E+00  0.0000E+00  0.0000E+00  0.0000E+00  0.0000E+00  0.0000E+00  0.0000E+00  0.0000E+00  0.0000E+00  0.0000E+00  0.0000E+00  0.0000E+00  0.0000E+00  0.0000E+00  0.0000E+00  0.0000E+00  0.0000E+00  0.0000E+00
    -18.608  0.0000E+00  0.0000E+00  0.0000E+00  0.0000E+00  0.0000E+00  0.0000E+00  0.0000E+00  0.0000E+00  0.0000E+00  0.0000E+00  0.0000E+00  0.0000E+00  0.0000E+00  0.0000E+00  0.0000E+00  0.0000E+00  0.0000E+00  0.0000E+00
    -18.526  0.0000E+00  0.0000E+00  0.0000E+00  0.0000E+00  0.0000E+00  0.0000E+00  0.0000E+00  0.0000E+00  0.0000E+00  0.0000E+00  0.0000E+00  0.0000E+00  0.0000E+00  0.0000E+00  0.0000E+00  0.0000E+00  0.0000E+00  0.0000E+00
    -18.445  0.0000E+00  0.0000E+00  0.0000E+00  0.0000E+00  0.0000E+00  0.0000E+00  0.0000E+00  0.0000E+00  0.0000E+00  0.0000E+00  0.0000E+00  0.0000E+00  0.0000E+00  0.0000E+00  0.0000E+00  0.0000E+00  0.0000E+00  0.0000E+00
    -18.363  0.0000E+00  0.0000E+00  0.0000E+00  0.0000E+00  0.0000E+00  0.0000E+00  0.0000E+00  0.0000E+00  0.0000E+00  0.0000E+00  0.0000E+00  0.0000E+00  0.0000E+00  0.0000E+00  0.0000E+00  0.0000E+00  0.0000E+00  0.0000E+00
    -18.282  0.0000E+00  0.0000E+00  0.0000E+00  0.0000E+00  0.0000E+00  0.0000E+00  0.0000E+00  0.0000E+00  0.0000E+00  0.0000E+00  0.0000E+00  0.0000E+00  0.0000E+00  0.0000E+00  0.0000E+00  0.0000E+00  0.0000E+00  0.0000E+00
    -18.201  0.0000E+00  0.0000E+00  0.0000E+00  0.0000E+00  0.0000E+00  0.0000E+00  0.0000E+00  0.0000E+00  0.0000E+00  0.0000E+00  0.0000E+00  0.0000E+00  0.0000E+00  0.0000E+00  0.0000E+00  0.0000E+00  0.0000E+00  0.0000E+00
    -18.119  0.0000E+00  0.0000E+00  0.0000E+00  0.0000E+00  0.0000E+00  0.0000E+00  0.0000E+00  0.0000E+00  0.0000E+00  0.0000E+00  0.0000E+00  0.0000E+00  0.0000E+00  0.0000E+00  0.0000E+00  0.0000E+00  0.0000E+00  0.0000E+00
    -18.038  0.0000E+00  0.0000E+00  0.0000E+00  0.0000E+00  0.0000E+00  0.0000E+00  0.0000E+00  0.0000E+00  0.0000E+00  0.0000E+00  0.0000E+00  0.0000E+00  0.0000E+00  0.0000E+00  0.0000E+00  0.0000E+00  0.0000E+00  0.0000E+00
    -17.956  0.0000E+00  0.0000E+00  0.0000E+00  0.0000E+00  0.0000E+00  0.0000E+00  0.0000E+00  0.0000E+00  0.0000E+00  0.0000E+00  0.0000E+00  0.0000E+00  0.0000E+00  0.0000E+00  0.0000E+00  0.0000E+00  0.0000E+00  0.0000E+00
    -17.875  0.0000E+00  0.6215E-02  0.0000E+00  0.3622E-04  0.0000E+00  0.2381E-03  0.0000E+00  0.2201E-03  0.0000E+00  0.1988E-05  0.0000E+00  0.8267E-06  0.0000E+00  0.1726E-05  0.0000E+00  0.4156E-04  0.0000E+00  0.1897E-04
    -17.793  0.1736E-01  0.2247E-01  0.1234E-03  0.1782E-03  0.5507E-03  0.8706E-03  0.7070E-03  0.1083E-02  0.7835E-05  0.9781E-05  0.2953E-05  0.4068E-05  0.7088E-05  0.5830E-05  0.1236E-03  0.2045E-03  0.5833E-04  0.9335E-04
    -17.712  0.1347E-01  0.1242E-01  0.2537E-03  0.2882E-03  0.4542E-03  0.5130E-03  0.1869E-02  0.2188E-02  0.6792E-04  0.7448E-04  0.8525E-04  0.1013E-03  0.4214E-05  0.2355E-05  0.3099E-03  0.4040E-03  0.1493E-03  0.1883E-03
    -17.631  0.1382E-01  0.1259E-01  0.3700E-03  0.4060E-03  0.4807E-03  0.5359E-03  0.2809E-02  0.3156E-02  0.1029E-03  0.1054E-03  0.1241E-03  0.1385E-03  0.3884E-05  0.2089E-05  0.5030E-03  0.6181E-03  0.2446E-03  0.2901E-03
    -17.549  0.1399E-01  0.1298E-01  0.6317E-03  0.1618E-02  0.5075E-03  0.6025E-03  0.4307E-02  0.7836E-02  0.1691E-03  0.3548E-03  0.2035E-03  0.5029E-03  0.3331E-05  0.1309E-05  0.8317E-03  0.1773E-02  0.4105E-03  0.8647E-03
    -17.468  0.1747E-01  0.7175E-02  0.2981E-02  0.1847E-02  0.7091E-03  0.3474E-03  0.1300E-01  0.6830E-02  0.6028E-03  0.3538E-03  0.7425E-03  0.5161E-03  0.2508E-05  0.6016E-06  0.3036E-02  0.1698E-02  0.1555E-02  0.8452E-03
    -17.386  0.0000E+00  0.0000E+00  0.0000E+00  0.0000E+00  0.0000E+00  0.0000E+00  0.0000E+00  0.0000E+00  0.0000E+00  0.0000E+00  0.0000E+00  0.0000E+00  0.0000E+00  0.0000E+00  0.0000E+00  0.0000E+00  0.0000E+00  0.0000E+00
    -17.305  0.0000E+00  0.0000E+00  0.0000E+00  0.0000E+00  0.0000E+00  0.0000E+00  0.0000E+00  0.0000E+00  0.0000E+00  0.0000E+00  0.0000E+00  0.0000E+00  0.0000E+00  0.0000E+00  0.0000E+00  0.0000E+00  0.0000E+00  0.0000E+00
    -17.224  0.0000E+00  0.0000E+00  0.0000E+00  0.0000E+00  0.0000E+00  0.0000E+00  0.0000E+00  0.0000E+00  0.0000E+00  0.0000E+00  0.0000E+00  0.0000E+00  0.0000E+00  0.0000E+00  0.0000E+00  0.0000E+00  0.0000E+00  0.0000E+00
    -17.142  0.0000E+00  0.0000E+00  0.0000E+00  0.0000E+00  0.0000E+00  0.0000E+00  0.0000E+00  0.0000E+00  0.0000E+00  0.0000E+00  0.0000E+00  0.0000E+00  0.0000E+00  0.0000E+00  0.0000E+00  0.0000E+00  0.0000E+00  0.0000E+00
    -17.061  0.0000E+00  0.0000E+00  0.0000E+00  0.0000E+00  0.0000E+00  0.0000E+00  0.0000E+00  0.0000E+00  0.0000E+00  0.0000E+00  0.0000E+00  0.0000E+00  0.0000E+00  0.0000E+00  0.0000E+00  0.0000E+00  0.0000E+00  0.0000E+00
    -16.979  0.0000E+00  0.0000E+00  0.0000E+00  0.0000E+00  0.0000E+00  0.0000E+00  0.0000E+00  0.0000E+00  0.0000E+00  0.0000E+00  0.0000E+00  0.0000E+00  0.0000E+00  0.0000E+00  0.0000E+00  0.0000E+00  0.0000E+00  0.0000E+00
    -16.898  0.0000E+00  0.0000E+00  0.0000E+00  0.0000E+00  0.0000E+00  0.0000E+00  0.0000E+00  0.0000E+00  0.0000E+00  0.0000E+00  0.0000E+00  0.0000E+00  0.0000E+00  0.0000E+00  0.0000E+00  0.0000E+00  0.0000E+00  0.0000E+00
    -16.816  0.0000E+00  0.0000E+00  0.0000E+00  0.0000E+00  0.0000E+00  0.0000E+00  0.0000E+00  0.0000E+00  0.0000E+00  0.0000E+00  0.0000E+00  0.0000E+00  0.0000E+00  0.0000E+00  0.0000E+00  0.0000E+00  0.0000E+00  0.0000E+00
    -16.735  0.0000E+00  0.0000E+00  0.0000E+00  0.0000E+00  0.0000E+00  0.0000E+00  0.0000E+00  0.0000E+00  0.0000E+00  0.0000E+00  0.0000E+00  0.0000E+00  0.0000E+00  0.0000E+00  0.0000E+00  0.0000E+00  0.0000E+00  0.0000E+00
    -16.654  0.0000E+00  0.0000E+00  0.0000E+00  0.0000E+00  0.0000E+00  0.0000E+00  0.0000E+00  0.0000E+00  0.0000E+00  0.0000E+00  0.0000E+00  0.0000E+00  0.0000E+00  0.0000E+00  0.0000E+00  0.0000E+00  0.0000E+00  0.0000E+00
    -16.572  0.0000E+00  0.0000E+00  0.0000E+00  0.0000E+00  0.0000E+00  0.0000E+00  0.0000E+00  0.0000E+00  0.0000E+00  0.0000E+00  0.0000E+00  0.0000E+00  0.0000E+00  0.0000E+00  0.0000E+00  0.0000E+00  0.0000E+00  0.0000E+00
    -16.491  0.0000E+00  0.0000E+00  0.0000E+00  0.0000E+00  0.0000E+00  0.0000E+00  0.0000E+00  0.0000E+00  0.0000E+00  0.0000E+00  0.0000E+00  0.0000E+00  0.0000E+00  0.0000E+00  0.0000E+00  0.0000E+00  0.0000E+00  0.0000E+00
    -16.409  0.3420E-02  0.6131E-02  0.1398E-03  0.2812E-03  0.6881E-02  0.1132E-01  0.1052E-04  0.2115E-04  0.2090E-04  0.4213E-04  0.1079E-03  0.1992E-03  0.4802E-05  0.8966E-05  0.5365E-03  0.9593E-03  0.2184E-03  0.3911E-03
    -16.328  0.9770E-02  0.1250E-01  0.8161E-03  0.1043E-02  0.9297E-02  0.8549E-02  0.3724E-03  0.6507E-03  0.2311E-03  0.2992E-03  0.4732E-03  0.5280E-03  0.1324E-04  0.1640E-04  0.2541E-02  0.2703E-02  0.1013E-02  0.1101E-02
    -16.247  0.2078E-01  0.2307E-01  0.1624E-02  0.1848E-02  0.9573E-02  0.8337E-02  0.1308E-02  0.1603E-02  0.5556E-03  0.6015E-03  0.8044E-03  0.8425E-03  0.2545E-04  0.2789E-04  0.4320E-02  0.4226E-02  0.1777E-02  0.1765E-02
    -16.165  0.1772E+00  0.0000E+00  0.1458E-01  0.0000E+00  0.1125E-01  0.0000E+00  0.1747E-01  0.0000E+00  0.4933E-02  0.0000E+00  0.4798E-02  0.0000E+00  0.1840E-03  0.0000E+00  0.1077E-01  0.0000E+00  0.5046E-02  0.0000E+00
    -16.084  0.0000E+00  0.0000E+00  0.0000E+00  0.0000E+00  0.0000E+00  0.0000E+00  0.0000E+00  0.0000E+00  0.0000E+00  0.0000E+00  0.0000E+00  0.0000E+00  0.0000E+00  0.0000E+00  0.0000E+00  0.0000E+00  0.0000E+00  0.0000E+00
    -16.002  0.1493E-01  0.1697E-01  0.9793E-02  0.1179E-01  0.1002E-01  0.1017E-01  0.3571E-02  0.3314E-02  0.2942E-02  0.3259E-02  0.7181E-02  0.7474E-02  0.2037E-04  0.2269E-04  0.7629E-02  0.7266E-02  0.3261E-02  0.3196E-02
    -15.921  0.1929E-01  0.5492E-02  0.1167E-01  0.2495E-02  0.8363E-02  0.3268E-02  0.3230E-02  0.2149E-02  0.3896E-02  0.1241E-02  0.8194E-02  0.2421E-02  0.2838E-04  0.7415E-05  0.7338E-02  0.1450E-02  0.3265E-02  0.6680E-03
    -15.839  0.6032E-02  0.1848E-01  0.2372E-02  0.8034E-02  0.2874E-02  0.5363E-02  0.2342E-02  0.8641E-02  0.1394E-02  0.3774E-02  0.2572E-02  0.7253E-02  0.9395E-05  0.3106E-04  0.1513E-02  0.2664E-02  0.7284E-03  0.1178E-02
    -15.758  0.2109E-01  0.1867E-01  0.9493E-02  0.1141E-01  0.5012E-02  0.5519E-02  0.9412E-02  0.9660E-02  0.4412E-02  0.4694E-02  0.8113E-02  0.9352E-02  0.4205E-04  0.3437E-04  0.2721E-02  0.2959E-02  0.1335E-02  0.1503E-02
    -15.677  0.2069E-01  0.1589E-01  0.1334E-01  0.1857E-01  0.5237E-02  0.4929E-02  0.1048E-01  0.1040E-01  0.5683E-02  0.6954E-02  0.1081E-01  0.1398E-01  0.4551E-04  0.3358E-04  0.3263E-02  0.3992E-02  0.1783E-02  0.2212E-02
    -15.595  0.1193E-01  0.5117E-02  0.1349E-01  0.7681E-02  0.2989E-02  0.1350E-02  0.9072E-02  0.4618E-02  0.5678E-02  0.3026E-02  0.1057E-01  0.5659E-02  0.3013E-04  0.1108E-04  0.3765E-02  0.2268E-02  0.2073E-02  0.1162E-02
    -15.514  0.4654E-02  0.3436E-03  0.6966E-02  0.1502E-02  0.1096E-02  0.1425E-03  0.4131E-02  0.1207E-02  0.2988E-02  0.6102E-03  0.5391E-02  0.1066E-02  0.1186E-04  0.8442E-06  0.2113E-02  0.1256E-02  0.1110E-02  0.5989E-03
    -15.432  0.7090E-02  0.6377E-02  0.4342E-02  0.5743E-02  0.3222E-01  0.2118E-01  0.2149E-02  0.1597E-02  0.2619E-02  0.2726E-02  0.8334E-02  0.7769E-02  0.5503E-04  0.4334E-04  0.1124E-01  0.6727E-02  0.4139E-02  0.2757E-02
    -15.351  0.4599E-02  0.3311E-02  0.6461E-02  0.5382E-02  0.1699E-01  0.8934E-02  0.1268E-02  0.9547E-03  0.2980E-02  0.2197E-02  0.8144E-02  0.5639E-02  0.3589E-04  0.2272E-04  0.5896E-02  0.3437E-02  0.2615E-02  0.1660E-02
    -15.270  0.1246E-01  0.1656E-01  0.1036E-01  0.1232E-01  0.1722E-01  0.1572E-01  0.6579E-02  0.1012E-01  0.8238E-02  0.9295E-02  0.1755E-01  0.1847E-01  0.9275E-04  0.1077E-03  0.1548E-01  0.1719E-01  0.5323E-02  0.5744E-02
    -15.188  0.2191E-01  0.1005E-01  0.1748E-01  0.1024E-01  0.1371E-01  0.6651E-02  0.1907E-01  0.1125E-01  0.1310E-01  0.6103E-02  0.2304E-01  0.1132E-01  0.1592E-03  0.6612E-04  0.2592E-01  0.1514E-01  0.9145E-02  0.5964E-02
    -15.107  0.7167E-02  0.4420E-02  0.1110E-01  0.7123E-02  0.4163E-02  0.2473E-02  0.1104E-01  0.8457E-02  0.5618E-02  0.3394E-02  0.1075E-01  0.6695E-02  0.5370E-04  0.2966E-04  0.1535E-01  0.1024E-01  0.6905E-02  0.4633E-02
    -15.025  0.2018E-02  0.2679E-03  0.4931E-02  0.7931E-03  0.7548E-03  0.1013E-03  0.8267E-02  0.1359E-02  0.3010E-02  0.4639E-03  0.4856E-02  0.7511E-03  0.1543E-04  0.1818E-05  0.7515E-02  0.1145E-02  0.3350E-02  0.4903E-03
    -14.944  0.0000E+00  0.0000E+00  0.0000E+00  0.0000E+00  0.0000E+00  0.0000E+00  0.0000E+00  0.0000E+00  0.0000E+00  0.0000E+00  0.0000E+00  0.0000E+00  0.0000E+00  0.0000E+00  0.0000E+00  0.0000E+00  0.0000E+00  0.0000E+00