       N       E                     dE             d eps       ncg     rms          rms(c)
DAV:   1     0.412727878633E+03    0.41273E+03   -0.16675E+04   960   0.832E+02
DAV:   2     0.385351913384E+02   -0.37419E+03   -0.34402E+03  1168   0.166E+02
DAV:   3    -0.499745898124E+02   -0.88510E+02   -0.83902E+02  1392   0.826E+01
DAV:   4    -0.550451987606E+02   -0.50706E+01   -0.49407E+01  1360   0.273E+01
DAV:   5    -0.551920311741E+02   -0.14683E+00   -0.14664E+00  1344   0.457E+00    0.312E+01
DAV:   6    -0.134438714542E+03   -0.79247E+02   -0.35744E+02  1456   0.824E+01    0.644E+01
DAV:   7    -0.410402562962E+02    0.93398E+02   -0.31603E+02  1136   0.131E+02    0.192E+01
DAV:   8    -0.448455451166E+02   -0.38053E+01   -0.14248E+01  1424   0.166E+01    0.107E+01
DAV:   9    -0.466037403939E+02   -0.17582E+01   -0.18099E+00  1552   0.116E+01    0.579E+00
DAV:  10    -0.469827879745E+02   -0.37905E+00   -0.12250E+00  1536   0.106E+01    0.375E+00
DAV:  11    -0.472410919613E+02   -0.25830E+00   -0.43313E-01  1520   0.549E+00    0.307E+00
DAV:  12    -0.473926732938E+02   -0.15158E+00   -0.12152E-01  1312   0.197E+00    0.327E+00
DAV:  13    -0.475872382401E+02   -0.19456E+00   -0.45882E-02  1504   0.162E+00    0.210E+00
DAV:  14    -0.477212318854E+02   -0.13399E+00   -0.42313E-02  1392   0.156E+00    0.859E-01
DAV:  15    -0.477851106386E+02   -0.63879E-01   -0.37038E-02  1152   0.134E+00    0.386E-01
DAV:  16    -0.477875082704E+02   -0.23976E-02   -0.10332E-02  1280   0.686E-01    0.161E-01
DAV:  17    -0.477880926916E+02   -0.58442E-03   -0.15049E-03  1456   0.313E-01    0.631E-02
DAV:  18    -0.477886164887E+02   -0.52380E-03   -0.39993E-04  1072   0.106E-01    0.465E-02
DAV:  19    -0.477887897706E+02   -0.17328E-03   -0.93104E-05   896   0.695E-02    0.154E-02
DAV:  20    -0.477889008683E+02   -0.11110E-03   -0.42910E-05   928   0.337E-02    0.675E-03
DAV:  21    -0.477890252987E+02   -0.12443E-03   -0.25634E-05   800   0.254E-02    0.390E-03
DAV:  22    -0.477890929780E+02   -0.67679E-04   -0.18414E-05   960   0.152E-02
   1 F= -.47789093E+02 E0= -.47789093E+02  d E =-.477891E+02  mag=     7.0014
       N       E                     dE             d eps       ncg     rms          rms(c)
DAV:   1    -0.759762905246E+02   -0.28187E+02   -0.69595E+02  1248   0.140E+02    0.291E+01
DAV:   2    -0.591000171309E+02    0.16876E+02   -0.57317E+01  1488   0.466E+01    0.150E+01
DAV:   3    -0.582378640016E+02    0.86215E+00   -0.34321E+01  1488   0.629E+01    0.165E+01
DAV:   4    -0.541501727157E+02    0.40877E+01   -0.30048E+01  1424   0.319E+01    0.501E+00
DAV:   5    -0.539402822191E+02    0.20989E+00   -0.21136E+00  1520   0.106E+01    0.205E+00
DAV:   6    -0.540138764835E+02   -0.73594E-01   -0.45941E-01  1472   0.513E+00    0.145E+00
DAV:   7    -0.540076442450E+02    0.62322E-02   -0.20488E-01  1472   0.520E+00    0.105E+00
DAV:   8    -0.540055864612E+02    0.20578E-02   -0.47955E-02  1472   0.246E+00    0.537E-01
DAV:   9    -0.540178590016E+02   -0.12273E-01   -0.15535E-02  1216   0.703E-01    0.358E-01
DAV:  10    -0.540241164270E+02   -0.62574E-02   -0.59384E-03  1024   0.424E-01    0.269E-01
DAV:  11    -0.540271195690E+02   -0.30031E-02   -0.66580E-03  1136   0.371E-01    0.177E-01
DAV:  12    -0.540269995113E+02    0.12006E-03   -0.35469E-03  1088   0.245E-01    0.876E-02
DAV:  13    -0.540253027247E+02    0.16968E-02   -0.11840E-03  1168   0.149E-01    0.595E-02
DAV:  14    -0.540239947680E+02    0.13080E-02   -0.26841E-04  1104   0.109E-01    0.478E-02
DAV:  15    -0.540225705321E+02    0.14242E-02   -0.14880E-04   928   0.914E-02    0.387E-02
DAV:  16    -0.540206286661E+02    0.19419E-02   -0.17309E-04   896   0.610E-02    0.428E-02
DAV:  17    -0.540180389831E+02    0.25897E-02   -0.33359E-04   912   0.760E-02    0.436E-02
DAV:  18    -0.540165583354E+02    0.14806E-02   -0.46390E-04  1056   0.797E-02    0.326E-02
DAV:  19    -0.540165348931E+02    0.23442E-04   -0.16856E-04   896   0.564E-02
   2 F= -.54016535E+02 E0= -.54016535E+02  d E =-.622744E+01  mag=     5.2754
       N       E                     dE             d eps       ncg     rms          rms(c)
DAV:   1    -0.540395028148E+02   -0.22944E-01   -0.54769E-01  1168   0.406E+00    0.757E-01
DAV:   2    -0.540271063382E+02    0.12396E-01   -0.35084E-02  1232   0.133E+00    0.376E-01
DAV:   3    -0.540252088877E+02    0.18975E-02   -0.17293E-02  1280   0.116E+00    0.352E-01
DAV:   4    -0.540231816765E+02    0.20272E-02   -0.95874E-03  1392   0.989E-01    0.897E-02
DAV:   5    -0.540230381360E+02    0.14354E-03   -0.89914E-04  1296   0.282E-01    0.341E-02
DAV:   6    -0.540231875242E+02   -0.14939E-03   -0.11855E-04   896   0.884E-02    0.239E-02
DAV:   7    -0.540232779152E+02   -0.90391E-04   -0.72385E-05   784   0.103E-01
   3 F= -.54023278E+02 E0= -.54023278E+02  d E =-.623418E+01  mag=     5.2705
       N       E                     dE             d eps       ncg     rms          rms(c)
DAV:   1    -0.540628795236E+02   -0.39692E-01   -0.45444E+00   960   0.697E+00    0.614E-01
DAV:   2    -0.540900723092E+02   -0.27193E-01   -0.34507E-01  1152   0.254E+00    0.389E-01
DAV:   3    -0.540887787506E+02    0.12936E-02   -0.18696E-02  1488   0.113E+00    0.305E-01
DAV:   4    -0.540868189750E+02    0.19598E-02   -0.60052E-03  1376   0.782E-01    0.160E-01
DAV:   5    -0.540861120636E+02    0.70691E-03   -0.23852E-03  1392   0.270E-01    0.457E-02
DAV:   6    -0.540860232753E+02    0.88788E-04   -0.28839E-04   976   0.795E-02
   4 F= -.54086023E+02 E0= -.54086023E+02  d E =-.627454E-01  mag=     5.2788
       N       E                     dE             d eps       ncg     rms          rms(c)
DAV:   1    -0.540860581250E+02    0.53939E-04   -0.53025E-03  1072   0.264E-01    0.353E-02
DAV:   2    -0.540861218878E+02   -0.63763E-04   -0.75729E-04  1264   0.222E-01
   5 F= -.54086122E+02 E0= -.54086122E+02  d E =-.628440E-01  mag=     5.2799
       N       E                     dE             d eps       ncg     rms          rms(c)
DAV:   1    -0.540927709690E+02   -0.67128E-02   -0.66365E-01   960   0.292E+00    0.326E-01
DAV:   2    -0.540953750014E+02   -0.26040E-02   -0.53065E-02  1168   0.946E-01    0.185E-01
DAV:   3    -0.540949060587E+02    0.46894E-03   -0.31699E-03  1280   0.400E-01    0.136E-01
DAV:   4    -0.540946407292E+02    0.26533E-03   -0.20870E-03  1344   0.483E-01    0.107E-01
DAV:   5    -0.540945798585E+02    0.60871E-04   -0.10924E-03  1248   0.349E-01    0.513E-02
DAV:   6    -0.540945928312E+02   -0.12973E-04   -0.27096E-04  1040   0.187E-01
   6 F= -.54094593E+02 E0= -.54094593E+02  d E =-.847094E-02  mag=     5.2835
       N       E                     dE             d eps       ncg     rms          rms(c)
DAV:   1    -0.540950958809E+02   -0.51602E-03   -0.51874E-02  1040   0.805E-01    0.942E-02
DAV:   2    -0.540953110858E+02   -0.21520E-03   -0.42290E-03  1088   0.265E-01    0.522E-02
DAV:   3    -0.540952870735E+02    0.24012E-04   -0.19542E-04   944   0.872E-02
   7 F= -.54095287E+02 E0= -.54095287E+02  d E =-.916519E-02  mag=     5.2846
       N       E                     dE             d eps       ncg     rms          rms(c)
DAV:   1    -0.541015069455E+02   -0.61959E-02   -0.22632E-01  1184   0.233E+00    0.387E-01
DAV:   2    -0.540986133773E+02    0.28936E-02   -0.17164E-02  1184   0.966E-01    0.236E-01
DAV:   3    -0.540976502236E+02    0.96315E-03   -0.65801E-03  1488   0.821E-01    0.197E-01
DAV:   4    -0.540966511564E+02    0.99907E-03   -0.31180E-03  1328   0.551E-01    0.591E-02
DAV:   5    -0.540966012075E+02    0.49949E-04   -0.74318E-04  1104   0.301E-01
   8 F= -.54096601E+02 E0= -.54096601E+02  d E =-.131413E-02  mag=     5.2846
       N       E                     dE             d eps       ncg     rms          rms(c)
DAV:   1    -0.540967395023E+02   -0.88346E-04   -0.71734E-03  1168   0.490E-01    0.723E-02
DAV:   2    -0.540965994623E+02    0.14004E-03   -0.70706E-04  1200   0.223E-01    0.528E-02
DAV:   3    -0.540965471583E+02    0.52304E-04   -0.31797E-04   976   0.202E-01
   9 F= -.54096547E+02 E0= -.54096547E+02  d E =-.126008E-02  mag=     5.2844
       N       E                     dE             d eps       ncg     rms          rms(c)
DAV:   1    -0.540981883015E+02   -0.15888E-02   -0.86056E-02  1184   0.129E+00    0.214E-01
DAV:   2    -0.540975559671E+02    0.63233E-03   -0.71973E-03  1168   0.610E-01    0.141E-01
DAV:   3    -0.540972537931E+02    0.30217E-03   -0.24397E-03  1376   0.525E-01    0.114E-01
DAV:   4    -0.540970374146E+02    0.21638E-03   -0.11685E-03  1440   0.351E-01    0.509E-02
DAV:   5    -0.540970322754E+02    0.51392E-05   -0.36670E-04   976   0.219E-01
  10 F= -.54097032E+02 E0= -.54097032E+02  d E =-.485117E-03  mag=     5.2857
       N       E                     dE             d eps       ncg     rms          rms(c)
DAV:   1    -0.540971172551E+02   -0.79841E-04   -0.63830E-04  1056   0.182E-01    0.222E-02
DAV:   2    -0.540972099270E+02   -0.92672E-04   -0.92389E-05   768   0.821E-02
  11 F= -.54097210E+02 E0= -.54097210E+02  d E =-.662769E-03  mag=     5.2861
