 vasp.5.4.4.18Apr17-6-g9f103f2a35 (build May  1 2020 15:48:39) complex           
 executed on             LinuxGNU date 2020.06.21  10:18:40
 running on   16 total cores
 distrk:  each k-point on   16 cores,    1 groups
 distr:  one band on NCORES_PER_BAND=   1 cores,   16 groups


--------------------------------------------------------------------------------------------------------


 INCAR:
 POTCAR:   PAW_PBE Cr 06Sep2000                   
 POTCAR:    PAW_PBE P 17Jan2003                   
 POTCAR:   PAW_PBE Ge 05Jan2001                   
 POTCAR:    PAW_PBE S 17Jan2003                   

 ----------------------------------------------------------------------------- 
|                                                                             |
|           W    W    AA    RRRRR   N    N  II  N    N   GGGG   !!!           |
|           W    W   A  A   R    R  NN   N  II  NN   N  G    G  !!!           |
|           W    W  A    A  R    R  N N  N  II  N N  N  G       !!!           |
|           W WW W  AAAAAA  RRRRR   N  N N  II  N  N N  G  GGG   !            |
|           WW  WW  A    A  R   R   N   NN  II  N   NN  G    G                |
|           W    W  A    A  R    R  N    N  II  N    N   GGGG   !!!           |
|                                                                             |
|      For optimal performance we recommend to set                            |
|        NCORE= 4 - approx SQRT( number of cores)                             |
|      NCORE specifies how many cores store one orbital (NPAR=cpu/NCORE).     |
|      This setting can  greatly improve the performance of VASP for DFT.     |
|      The default,   NCORE=1            might be grossly inefficient         |
|      on modern multi-core architectures or massively parallel machines.     |
|      Do your own testing !!!!                                               |
|      Unfortunately you need to use the default for GW and RPA calculations. |
|      (for HF NCORE is supported but not extensively tested yet)             |
|                                                                             |
 ----------------------------------------------------------------------------- 


 ----------------------------------------------------------------------------- 
|                                                                             |
|  ADVICE TO THIS USER RUNNING 'VASP/VAMP'   (HEAR YOUR MASTER'S VOICE ...):  |
|                                                                             |
|      You have switched on vdW-DFT.                                          |
|      This routine was written and supplied by Jiri Klimes.                  |
|      We recommed that you carefully read and cite the following             |
|      publication                                                            |
|      J. Klimes, D.R. Bowler, A. Michelides                                  |
|        J. Phys.: Cond Matt. 22 022201 (2010)                                |
|      J. Klimes, D.R. Bowler, A. Michelides                                  |
|        Phys. Rev. B. 83, 195131 (2011)                                      |
|      and references therein.                                                |
|                                                                             |
 ----------------------------------------------------------------------------- 

 POTCAR:   PAW_PBE Cr 06Sep2000                   
   VRHFIN =Cr : d5 s1                                                           
   LEXCH  = PE                                                                  
   EATOM  =   276.9744 eV,   20.3570 Ry                                         
                                                                                
   TITEL  = PAW_PBE Cr 06Sep2000                                                
   LULTRA =        F    use ultrasoft PP ?                                      
   IUNSCR =        1    unscreen: 0-lin 1-nonlin 2-no                           
   RPACOR =    2.080    partial core radius                                     
   POMASS =   51.996; ZVAL   =    6.000    mass and valenz                      
   RCORE  =    2.500    outmost cutoff radius                                   
   RWIGS  =    2.500; RWIGS  =    1.323    wigner-seitz radius (au A)           
   ENMAX  =  227.082; ENMIN  =  170.311 eV                                      
   RCLOC  =    1.721    cutoff for local pot                                    
   LCOR   =        T    correct aug charges                                     
   LPAW   =        T    paw PP                                                  
   EAUG   =  402.108                                                            
   DEXC   =    -.035                                                            
   RMAX   =    3.060    core radius for proj-oper                               
   RAUG   =    1.300    factor for augmentation sphere                          
   RDEP   =    2.609    radius for radial grids                                 
   QCUT   =   -4.085; QGAM   =    8.171    optimization parameters              
                                                                                
   Description                                                                  
     l     E      TYP  RCUT    TYP  RCUT                                        
     2   .000     23  2.500                                                     
     2   .000     23  2.500                                                     
     0   .000     23  2.500                                                     
     0   .000     23  2.500                                                     
     1  -.400     23  2.500                                                     
     1  2.000     23  2.500                                                     
     3   .000      7   .000                                                     
  local pseudopotential read in
  partial core-charges read in
  atomic valenz-charges read in
  non local Contribution for L=           2  read in
    real space projection operators read in
  non local Contribution for L=           2  read in
    real space projection operators read in
  non local Contribution for L=           0  read in
    real space projection operators read in
  non local Contribution for L=           0  read in
    real space projection operators read in
  non local Contribution for L=           1  read in
    real space projection operators read in
  non local Contribution for L=           1  read in
    real space projection operators read in
    PAW grid and wavefunctions read in

   number of l-projection  operators is LMAX  =           6
   number of lm-projection operators is LMMAX =          18

 POTCAR:    PAW_PBE P 17Jan2003                   
   VRHFIN =P : s2p3                                                             
   LEXCH  = PE                                                                  
   EATOM  =   176.0430 eV,   12.9388 Ry                                         
                                                                                
   TITEL  = PAW_PBE P 17Jan2003                                                 
   LULTRA =        F    use ultrasoft PP ?                                      
   IUNSCR =        1    unscreen: 0-lin 1-nonlin 2-no                           
   RPACOR =    1.500    partial core radius                                     
   POMASS =   30.974; ZVAL   =    5.000    mass and valenz                      
   RCORE  =    1.900    outmost cutoff radius                                   
   RWIGS  =    2.330; RWIGS  =    1.233    wigner-seitz radius (au A)           
   ENMAX  =  270.000; ENMIN  =  191.280 eV                                      
   ICORE  =        2    local potential                                         
   LCOR   =        T    correct aug charges                                     
   LPAW   =        T    paw PP                                                  
   EAUG   =  342.924                                                            
   DEXC   =    -.002                                                            
   RMAX   =    2.887    core radius for proj-oper                               
   RAUG   =    1.300    factor for augmentation sphere                          
   RDEP   =    1.931    radius for radial grids                                 
   QCUT   =   -4.330; QGAM   =    8.659    optimization parameters              
                                                                                
   Description                                                                  
     l     E      TYP  RCUT    TYP  RCUT                                        
     0   .000     23  1.900                                                     
     0   .000     23  1.900                                                     
     1   .000     23  1.900                                                     
     1   .000     23  1.900                                                     
     2   .000     23  1.900                                                     
  local pseudopotential read in
  partial core-charges read in
  atomic valenz-charges read in
  non local Contribution for L=           0  read in
    real space projection operators read in
  non local Contribution for L=           0  read in
    real space projection operators read in
  non local Contribution for L=           1  read in
    real space projection operators read in
  non local Contribution for L=           1  read in
    real space projection operators read in
    PAW grid and wavefunctions read in

   number of l-projection  operators is LMAX  =           4
   number of lm-projection operators is LMMAX =           8

 POTCAR:   PAW_PBE Ge 05Jan2001                   
   VRHFIN =Ge: s2p2                                                             
   LEXCH  = PE                                                                  
   EATOM  =   104.9960 eV,    7.7170 Ry                                         
                                                                                
   TITEL  = PAW_PBE Ge 05Jan2001                                                
   LULTRA =        F    use ultrasoft PP ?                                      
   IUNSCR =        1    unscreen: 0-lin 1-nonlin 2-no                           
   RPACOR =    2.170    partial core radius                                     
   POMASS =   72.610; ZVAL   =    4.000    mass and valenz                      
   RCORE  =    2.300    outmost cutoff radius                                   
   RWIGS  =    2.300; RWIGS  =    1.217    wigner-seitz radius (au A)           
   ENMAX  =  173.807; ENMIN  =  130.355 eV                                      
   ICORE  =        3    local potential                                         
   LCOR   =        T    correct aug charges                                     
   LPAW   =        T    paw PP                                                  
   EAUG   =  385.843                                                            
   DEXC   =    -.138                                                            
   RMAX   =    3.497    core radius for proj-oper                               
   RAUG   =    1.300    factor for augmentation sphere                          
   RDEP   =    2.318    radius for radial grids                                 
   QCUT   =   -3.574; QGAM   =    7.148    optimization parameters              
                                                                                
   Description                                                                  
     l     E      TYP  RCUT    TYP  RCUT                                        
     0   .000     23  2.300                                                     
     0   .000     23  2.300                                                     
     1   .000     23  2.300                                                     
     1   .000     23  2.300                                                     
     2   .000     23  2.300                                                     
     3  -.100      7  2.300                                                     
  local pseudopotential read in
  partial core-charges read in
  atomic valenz-charges read in
  non local Contribution for L=           0  read in
    real space projection operators read in
  non local Contribution for L=           0  read in
    real space projection operators read in
  non local Contribution for L=           1  read in
    real space projection operators read in
  non local Contribution for L=           1  read in
    real space projection operators read in
  non local Contribution for L=           2  read in
    real space projection operators read in
    PAW grid and wavefunctions read in

   number of l-projection  operators is LMAX  =           5
   number of lm-projection operators is LMMAX =          13

 POTCAR:    PAW_PBE S 17Jan2003                   
   VRHFIN =S : s2p4                                                             
   LEXCH  = PE                                                                  
   EATOM  =   276.8230 eV,   20.3459 Ry                                         
                                                                                
   TITEL  = PAW_PBE S 17Jan2003                                                 
   LULTRA =        F    use ultrasoft PP ?                                      
   IUNSCR =        1    unscreen: 0-lin 1-nonlin 2-no                           
   RPACOR =    1.500    partial core radius                                     
   POMASS =   32.066; ZVAL   =    6.000    mass and valenz                      
   RCORE  =    1.900    outmost cutoff radius                                   
   RWIGS  =    2.200; RWIGS  =    1.164    wigner-seitz radius (au A)           
   ENMAX  =  280.000; ENMIN  =  194.016 eV                                      
   ICORE  =        2    local potential                                         
   LCOR   =        T    correct aug charges                                     
   LPAW   =        T    paw PP                                                  
   EAUG   =  335.092                                                            
   DEXC   =     .000                                                            
   RMAX   =    2.867    core radius for proj-oper                               
   RAUG   =    1.300    factor for augmentation sphere                          
   RDEP   =    1.954    radius for radial grids                                 
   QCUT   =   -4.360; QGAM   =    8.721    optimization parameters              
                                                                                
   Description                                                                  
     l     E      TYP  RCUT    TYP  RCUT                                        
     0   .000     23  1.900                                                     
     0   .000     23  1.900                                                     
     1   .000     23  1.900                                                     
     1   .000     23  1.900                                                     
     2   .000     23  1.900                                                     
  local pseudopotential read in
  partial core-charges read in
  atomic valenz-charges read in
  non local Contribution for L=           0  read in
    real space projection operators read in
  non local Contribution for L=           0  read in
    real space projection operators read in
  non local Contribution for L=           1  read in
    real space projection operators read in
  non local Contribution for L=           1  read in
    real space projection operators read in
    PAW grid and wavefunctions read in

   number of l-projection  operators is LMAX  =           4
   number of lm-projection operators is LMMAX =           8

 Optimization of the real space projectors (new method)

 maximal supplied QI-value         = 15.12
 optimisation between [QCUT,QGAM] = [ 11.64, 23.28] = [ 37.95,151.78] Ry 
 Optimized for a Real-space Cutoff    1.49 Angstroem

   l    n(q)    QCUT    max X(q) W(low)/X(q) W(high)/X(q)  e(spline) 
   2      9    11.641     4.777    0.25E-04    0.21E-05    0.63E-07
   2      9    11.641    31.132    0.13E-03    0.22E-03    0.64E-06
   0     10    11.641    20.416    0.11E-04    0.74E-05    0.19E-07
   0     10    11.641    45.408    0.10E-03    0.85E-04    0.30E-06
   1     10    11.641     7.848    0.22E-04    0.23E-04    0.56E-07
   1     10    11.641     9.895    0.85E-04    0.54E-04    0.16E-06
 Optimization of the real space projectors (new method)

 maximal supplied QI-value         = 19.84
 optimisation between [QCUT,QGAM] = [ 11.51, 23.22] = [ 37.09,150.92] Ry 
 Optimized for a Real-space Cutoff    1.21 Angstroem

   l    n(q)    QCUT    max X(q) W(low)/X(q) W(high)/X(q)  e(spline) 
   0      8    11.508     6.651    0.19E-04    0.31E-05    0.49E-08
   0      8    11.508    90.285    0.95E-04    0.17E-03    0.51E-07
   1      8    11.508     4.328    0.14E-04    0.32E-04    0.22E-07
   1      8    11.508    54.583    0.16E-03    0.71E-04    0.89E-07
 Optimization of the real space projectors (new method)

 maximal supplied QI-value         = 16.25
 optimisation between [QCUT,QGAM] = [ 11.54, 23.24] = [ 37.28,151.24] Ry 
 Optimized for a Real-space Cutoff    1.28 Angstroem

   l    n(q)    QCUT    max X(q) W(low)/X(q) W(high)/X(q)  e(spline) 
   0      9    11.539     8.651    0.22E-04    0.16E-04    0.10E-07
   0      9    11.539    33.192    0.11E-03    0.16E-03    0.65E-07
   1      8    11.539     5.899    0.37E-04    0.28E-04    0.43E-07
   1      8    11.539    27.289    0.22E-03    0.28E-04    0.14E-06
   2      8    11.539     4.673    0.11E-03    0.18E-03    0.58E-07
 Optimization of the real space projectors (new method)

 maximal supplied QI-value         = 19.84
 optimisation between [QCUT,QGAM] = [ 11.51, 23.22] = [ 37.09,150.92] Ry 
 Optimized for a Real-space Cutoff    1.21 Angstroem

   l    n(q)    QCUT    max X(q) W(low)/X(q) W(high)/X(q)  e(spline) 
   0      8    11.508     5.487    0.18E-04    0.22E-05    0.47E-08
   0      8    11.508    85.627    0.96E-04    0.18E-03    0.54E-07
   1      8    11.508     3.530    0.17E-04    0.28E-04    0.21E-07
   1      8    11.508    42.714    0.18E-03    0.63E-04    0.92E-07

 ----------------------------------------------------------------------------- 
|                                                                             |
|  ADVICE TO THIS USER RUNNING 'VASP/VAMP'   (HEAR YOUR MASTER'S VOICE ...):  |
|                                                                             |
|      You enforced a specific xc-type in the INCAR file,                     |
|      a different type was found on the POTCAR file                          |
|          I HOPE YOU KNOW, WHAT YOU ARE  DOING                               |
|                                                                             |
 ----------------------------------------------------------------------------- 

 PAW_PBE Cr 06Sep2000                   :
 energy of atom  1       EATOM= -276.9744
 kinetic energy error for atom=    0.0010 (will be added to EATOM!!)
  PAW_PBE P 17Jan2003                   :
 energy of atom  2       EATOM= -176.0430
 kinetic energy error for atom=    0.0011 (will be added to EATOM!!)
 PAW_PBE Ge 05Jan2001                   :
 energy of atom  3       EATOM= -104.9960
 kinetic energy error for atom=    0.0002 (will be added to EATOM!!)
  PAW_PBE S 17Jan2003                   :
 energy of atom  4       EATOM= -276.8230
 kinetic energy error for atom=    0.0016 (will be added to EATOM!!)


 POSCAR: Cr2 P Ge S6                             
  positions in direct lattice
  velocities in cartesian coordinates
  No initial velocities read in
 exchange correlation table for  LEXCH =       42
   RHO(1)=    0.500       N(1)  =     2000
   RHO(2)=  100.500       N(2)  =     4000



--------------------------------------------------------------------------------------------------------


 ion  position               nearest neighbor table
   1  0.333  0.333  0.500-   6 2.78   5 2.78   7 2.78   8 2.78  10 2.78   9 2.78
   2  0.667  0.667  0.500-   9 2.78   8 2.78  10 2.78   5 2.78   7 2.78   6 2.78
   3  0.000  0.000  0.448-   4 2.43   8 2.63  10 2.63   9 2.63
   4  0.000  0.000  0.552-   3 2.43   5 2.63   7 2.63   6 2.63
   5  0.626  0.000  0.574-   4 2.63   1 2.78   2 2.78
   6  0.000  0.373  0.574-   4 2.63   1 2.78   2 2.78
   7  0.373  0.626  0.574-   4 2.63   1 2.78   2 2.78
   8  0.374  1.000  0.426-   3 2.63   2 2.78   1 2.78
   9  1.000  0.627  0.426-   3 2.63   2 2.78   1 2.78
  10  0.627  0.374  0.426-   3 2.63   2 2.78   1 2.78

  LATTYP: Found a hexagonal cell.
 ALAT       =     6.9077769333
 C/A-ratio  =     3.3939410937
  
  Lattice vectors:
  
 A1 = (   3.4538890000,  -5.9823100000,   0.0000000000)
 A2 = (  -6.9077770000,   0.0000000000,   0.0000000000)
 A3 = (   0.0000000000,   0.0000000000, -23.4445880000)


Analysis of symmetry for initial positions (statically):
=====================================================================
 Subroutine PRICEL returns:
 Original cell was already a primitive cell.
 

 Routine SETGRP: Setting up the symmetry group for a 
 hexagonal supercell.


 Subroutine GETGRP returns: Found  3 space group operations
 (whereof  3 operations were pure point group operations)
 out of a pool of 24 trial point group operations.


The static configuration has the point symmetry C_3 .


Analysis of symmetry for dynamics (positions and initial velocities):
=====================================================================
 Subroutine PRICEL returns:
 Original cell was already a primitive cell.
 

 Routine SETGRP: Setting up the symmetry group for a 
 hexagonal supercell.


 Subroutine GETGRP returns: Found  3 space group operations
 (whereof  3 operations were pure point group operations)
 out of a pool of 24 trial point group operations.


The dynamic configuration has the point symmetry C_3 .


Analysis of constrained symmetry for selective dynamics:
=====================================================================
 Subroutine PRICEL returns:
 Original cell was already a primitive cell.
 

 Routine SETGRP: Setting up the symmetry group for a 
 hexagonal supercell.


 Subroutine GETGRP returns: Found  3 space group operations
 (whereof  3 operations were pure point group operations)
 out of a pool of 24 trial point group operations.


The constrained configuration has the point symmetry C_3 .


Analysis of structural, dynamic, and magnetic symmetry:
=====================================================================
 Subroutine PRICEL returns:
 Original cell was already a primitive cell.
 

 Routine SETGRP: Setting up the symmetry group for a 
 hexagonal supercell.


 Subroutine GETGRP returns: Found  3 space group operations
 (whereof  3 operations were pure point group operations)
 out of a pool of 24 trial point group operations.


The magnetic configuration has the point symmetry C_3 .


 Subroutine INISYM returns: Found  3 space group operations
 (whereof  3 operations are pure point group operations),
 and found     1 'primitive' translations



 KPOINTS: Kpoints from vasprun.xml                

Automatic generation of k-mesh.
Space group operators:
 irot       det(A)        alpha          n_x          n_y          n_z        tau_x        tau_y        tau_z
    1     1.000000     0.000000     1.000000     0.000000     0.000000     0.000000     0.000000     0.000000
    2     1.000000   120.000000     0.000000     0.000000     1.000000     0.000000     0.000000     0.000000
    3     1.000000   120.000000     0.000000     0.000000    -1.000000     0.000000     0.000000     0.000000
 
 Subroutine IBZKPT returns following result:
 ===========================================
 
 Found      5 irreducible k-points:
 
 Following reciprocal coordinates:
            Coordinates               Weight
  0.000000  0.000000  0.000000      1.000000
  0.200000  0.000000  0.000000      6.000000
  0.400000  0.000000  0.000000      6.000000
  0.400000  0.200000  0.000000      6.000000
 -0.400000  0.200000  0.000000      6.000000
 
 Following cartesian coordinates:
            Coordinates               Weight
  0.000000  0.000000  0.000000      1.000000
  0.028953 -0.016716  0.000000      6.000000
  0.057906 -0.033432  0.000000      6.000000
  0.057906  0.000000  0.000000      6.000000
 -0.057906  0.066864  0.000000      6.000000
 
 TETIRR: Found     15 inequivalent tetrahedra from      150


--------------------------------------------------------------------------------------------------------




 Dimension of arrays:
   k-points           NKPTS =      5   k-points in BZ     NKDIM =      5   number of bands    NBANDS=     48
   number of dos      NEDOS =    301   number of ions     NIONS =     10
   non local maximal  LDIM  =      6   non local SUM 2l+1 LMDIM =     18
   total plane-waves  NPLWV = 524880
   max r-space proj   IRMAX =   7543   max aug-charges    IRDMAX=  29641
   dimension x,y,z NGX =    54 NGY =   54 NGZ =  180
   dimension x,y,z NGXF=   108 NGYF=  108 NGZF=  360
   support grid    NGXF=   108 NGYF=  108 NGZF=  360
   ions per type =               2   1   1   6
   NGX,Y,Z   is equivalent  to a cutoff of  13.00, 13.00, 12.76 a.u.
   NGXF,Y,Z  is equivalent  to a cutoff of  25.99, 25.99, 25.53 a.u.

 SYSTEM =  unknown system                          
 POSCAR =  Cr2 P Ge S6                             

 Startparameter for this run:
   NWRITE =      2    write-flag & timer
   PREC   = accura    normal or accurate (medium, high low for compatibility)
   ISTART =      0    job   : 0-new  1-cont  2-samecut
   ICHARG =      2    charge: 1-file 2-atom 10-const
   ISPIN  =      2    spin polarized calculation?
   LNONCOLLINEAR =      F non collinear calculations
   LSORBIT =      F    spin-orbit coupling
   INIWAV =      1    electr: 0-lowe 1-rand  2-diag
   LASPH  =      F    aspherical Exc in radial PAW
   METAGGA=      F    non-selfconsistent MetaGGA calc.

 Electronic Relaxation 1
   ENCUT  =  520.0 eV  38.22 Ry    6.18 a.u.  12.84 12.84 43.59*2*pi/ulx,y,z
   ENINI  =  520.0     initial cutoff
   ENAUG  =  402.1 eV  augmentation charge cutoff
   NELM   =    400;   NELMIN=  2; NELMDL=  0     # of ELM steps 
   EDIFF  = 0.1E-03   stopping-criterion for ELM
   LREAL  =      T    real-space projection
   NLSPLINE    = F    spline interpolate recip. space projectors
   LCOMPAT=      F    compatible to vasp.4.4
   GGA_COMPAT  = T    GGA compatible to vasp.4.4-vasp.4.6
   LMAXPAW     = -100 max onsite density
   LMAXMIX     =    2 max onsite mixed and CHGCAR
   VOSKOWN=      0    Vosko Wilk Nusair interpolation
   ROPT   =   -0.00025  -0.00025  -0.00025  -0.00025
 Ionic relaxation
   EDIFFG = 0.1E-02   stopping-criterion for IOM
   NSW    =     99    number of steps for IOM
   NBLOCK =      1;   KBLOCK =     99    inner block; outer block 
   IBRION =      2    ionic relax: 0-MD 1-quasi-New 2-CG
   NFREE  =      1    steps in history (QN), initial steepest desc. (CG)
   ISIF   =      3    stress and relaxation
   IWAVPR =     11    prediction:  0-non 1-charg 2-wave 3-comb
   ISYM   =      2    0-nonsym 1-usesym 2-fastsym
   LCORR  =      T    Harris-Foulkes like correction to forces

   POTIM  = 0.5000    time-step for ionic-motion
   TEIN   =    0.0    initial temperature
   TEBEG  =    0.0;   TEEND  =   0.0 temperature during run
   SMASS  =  -3.00    Nose mass-parameter (am)
   estimated Nose-frequenzy (Omega)   =  0.10E-29 period in steps =****** mass=  -0.109E-26a.u.
   SCALEE = 1.0000    scale energy and forces
   NPACO  =    256;   APACO  = 16.0  distance and # of slots for P.C.
   PSTRESS=    0.0 pullay stress

  Mass of Ions in am
   POMASS =  52.00 30.97 72.61 32.07
  Ionic Valenz
   ZVAL   =   6.00  5.00  4.00  6.00
  Atomic Wigner-Seitz radii
   RWIGS  =  -1.00 -1.00 -1.00 -1.00
  virtual crystal weights 
   VCA    =   1.00  1.00  1.00  1.00
   NELECT =      57.0000    total number of electrons
   NUPDOWN=      -1.0000    fix difference up-down

 DOS related values:
   EMIN   =  10.00;   EMAX   =-10.00  energy-range for DOS
   EFERMI =   0.00
   ISMEAR =    -5;   SIGMA  =   0.05  broadening in eV -4-tet -1-fermi 0-gaus

 Electronic relaxation 2 (details)
   IALGO  =     38    algorithm
   LDIAG  =      T    sub-space diagonalisation (order eigenvalues)
   LSUBROT=      F    optimize rotation matrix (better conditioning)
   TURBO    =      0    0=normal 1=particle mesh
   IRESTART =      0    0=no restart 2=restart with 2 vectors
   NREBOOT  =      0    no. of reboots
   NMIN     =      0    reboot dimension
   EREF     =   0.00    reference energy to select bands
   IMIX   =      4    mixing-type and parameters
     AMIX     =   0.40;   BMIX     =  1.00
     AMIX_MAG =   1.60;   BMIX_MAG =  1.00
     AMIN     =   0.01
     WC   =   100.;   INIMIX=   1;  MIXPRE=   1;  MAXMIX= -45

 Intra band minimization:
   WEIMIN = 0.0010     energy-eigenvalue tresh-hold
   EBREAK =  0.52E-06  absolut break condition
   DEPER  =   0.30     relativ break condition  

   TIME   =   0.40     timestep for ELM

  volume/ion in A,a.u.               =      96.88       653.80
  Fermi-wavevector in a.u.,A,eV,Ry     =   0.636722  1.203230  5.516004  0.405415
  Thomas-Fermi vector in A             =   1.701488

 Write flags
   LWAVE        =      F    write WAVECAR
   LDOWNSAMPLE  =      F    k-point downsampling of WAVECAR
   LCHARG       =      T    write CHGCAR
   LVTOT        =      F    write LOCPOT, total local potential
   LVHAR        =      F    write LOCPOT, Hartree potential only
   LELF         =      F    write electronic localiz. function (ELF)
   LORBIT       =     11    0 simple, 1 ext, 2 COOP (PROOUT), +10 PAW based schemes


 Dipole corrections
   LMONO  =      F    monopole corrections only (constant potential shift)
   LDIPOL =      F    correct potential (dipole corrections)
   IDIPOL =      0    1-x, 2-y, 3-z, 4-all directions 
   EPSILON=  1.0000000 bulk dielectric constant

 Exchange correlation treatment:
   GGA     =    BO    GGA type
   LEXCH   =    42    internal setting for exchange type
   VOSKOWN=      0    Vosko Wilk Nusair interpolation
   LHFCALC =     F    Hartree Fock is set to
   LHFONE  =     F    Hartree Fock one center treatment
   AEXX    =    0.0000 exact exchange contribution

 vdW DFT:
   LUSE_VDW   =     T    switch on vdW DFT
   Zab_VDW    =-.8491    correlation parameter
   PARAM1     =0.1833
   PARAM2     =0.2200
   PARAM3     =0.0000
   -- rVV10 --
   BPARAM     = 6.3000
   CPARAM     = 0.0093

 Linear response parameters
   LEPSILON=     F    determine dielectric tensor
   LRPA    =     F    only Hartree local field effects (RPA)
   LNABLA  =     F    use nabla operator in PAW spheres
   LVEL    =     F    velocity operator in full k-point grid
   LINTERFAST=   F  fast interpolation
   KINTER  =     0    interpolate to denser k-point grid
   CSHIFT  =0.1000    complex shift for real part using Kramers Kronig
   OMEGAMAX=  -1.0    maximum frequency
   DEG_THRESHOLD= 0.2000000E-02 threshold for treating states as degnerate
   RTIME   =   -0.100 relaxation time in fs
  (WPLASMAI=    0.000 imaginary part of plasma frequency in eV, 0.658/RTIME)
   DFIELD  = 0.0000000 0.0000000 0.0000000 field for delta impulse in time

 Orbital magnetization related:
   ORBITALMAG=     F  switch on orbital magnetization
   LCHIMAG   =     F  perturbation theory with respect to B field
   DQ        =  0.001000  dq finite difference perturbation B field
   LLRAUG    =     F  two centre corrections for induced B field



--------------------------------------------------------------------------------------------------------


 conjugate gradient relaxation of ions
   using selective dynamics as specified on POSCAR
 charge density and potential will be updated during run
 spin polarized calculation
 Variant of blocked Davidson
 Davidson routine will perform the subspace rotation
 perform sub-space diagonalisation
    after iterative eigenvector-optimisation
 modified Broyden-mixing scheme, WC =      100.0
 initial mixing is a Kerker type mixing with AMIX =  0.4000 and BMIX =      1.0000
 Hartree-type preconditioning will be used
 using additional bands           19
 real space projection scheme for non local part
 use partial core corrections
 calculate Harris-corrections to forces   (improved forces if not selfconsistent)
 use gradient corrections 
 use of overlap-Matrix (Vanderbilt PP)
 Fermi weights with tetrahedron method with Bloechl corrections


--------------------------------------------------------------------------------------------------------


  energy-cutoff  :      520.00
  volume of cell :      968.84
      direct lattice vectors                 reciprocal lattice vectors
     6.907777000 -0.000000000  0.000000000     0.144764372 -0.083579742  0.000000000
     3.453888000  5.982310000  0.000000000     0.000000000  0.167159509 -0.000000000
     0.000000000  0.000000000 23.444588000    -0.000000000  0.000000000  0.042653767

  length of vectors
     6.907777000  6.907776433 23.444588000     0.167159495  0.167159509  0.042653767



 k-points in units of 2pi/SCALE and weight: Kpoints from vasprun.xml                
   0.00000000  0.00000000  0.00000000       0.040
   0.02895287 -0.01671595  0.00000000       0.240
   0.05790575 -0.03343190  0.00000000       0.240
   0.05790575  0.00000000  0.00000000       0.240
  -0.05790575  0.06686380  0.00000000       0.240

 k-points in reciprocal lattice and weights: Kpoints from vasprun.xml                
   0.00000000  0.00000000  0.00000000       0.040
   0.20000000  0.00000000  0.00000000       0.240
   0.40000000  0.00000000  0.00000000       0.240
   0.40000000  0.20000000  0.00000000       0.240
  -0.40000000  0.20000000  0.00000000       0.240

 position of ions in fractional coordinates (direct lattice) 
   0.33333300  0.33333300  0.49992500
   0.66666700  0.66666700  0.50007500
   0.00000000  0.00000000  0.44821600
   0.00000000  0.00000000  0.55178400
   0.62635700  0.00042000  0.57375200
   0.00042000  0.37322400  0.57375200
   0.37322400  0.62635700  0.57375200
   0.37364300  0.99958000  0.42624800
   0.99958000  0.62677600  0.42624800
   0.62677600  0.37364300  0.42624800

 position of ions in cartesian coordinates  (Angst):
   3.45388488  1.99410134 11.72053566
   6.90778012  3.98820866 11.72405234
   0.00000000  0.00000000 10.50823946
   0.00000000  0.00000000 12.93634854
   4.32818511  0.00251257 13.45137925
   1.29197516  2.23274167 13.45137925
   4.74151509  3.74706174 13.45137925
   6.03347989  5.97979743  9.99320875
   9.06968984  3.74956833  9.99320875
   5.62014991  2.23524826  9.99320875



--------------------------------------------------------------------------------------------------------


 k-point  1 :   0.0000 0.0000 0.0000  plane waves:   26073
 k-point  2 :   0.2000 0.0000 0.0000  plane waves:   26070
 k-point  3 :   0.4000 0.0000 0.0000  plane waves:   26086
 k-point  4 :   0.4000 0.2000 0.0000  plane waves:   26085
 k-point  5 :  -0.4000 0.2000 0.0000  plane waves:   26115

 maximum and minimum number of plane-waves per node :     26115    26070

 maximum number of plane-waves:     26115
 maximum index in each direction: 
   IXMAX=   13   IYMAX=   12   IZMAX=   43
   IXMIN=  -13   IYMIN=  -13   IZMIN=  -43


 serial   3D FFT for wavefunctions
 parallel 3D FFT for charge:
    minimum data exchange during FFTs selected (reduces bandwidth)


 total amount of memory used by VASP MPI-rank0   128521. kBytes
=======================================================================

   base      :      30000. kBytes
   nonlr-proj:       6036. kBytes
   fftplans  :      11247. kBytes
   grid      :      68332. kBytes
   one-center:        311. kBytes
   wavefun   :      12595. kBytes

     INWAV:  cpu time    0.0000: real time    0.0003
 Broyden mixing: mesh for mixing (old mesh)
   NGX = 25   NGY = 25   NGZ = 87
  (NGX  =108   NGY  =108   NGZ  =360)
  gives a total of  54375 points

 initial charge density was supplied:
 charge density of overlapping atoms calculated
 number of electron      57.0000000 magnetization      14.8000000
 keeping initial charge density in first step


--------------------------------------------------------------------------------------------------------


 Maximum index for non-local projection operator         7247
 Maximum index for augmentation-charges         2133 (set IRDMAX)


--------------------------------------------------------------------------------------------------------


 First call to EWALD:  gamma=   0.179
 Maximum number of real-space cells 4x 4x 1
 Maximum number of reciprocal cells 2x 2x 6

    FEWALD:  cpu time    0.0000: real time    0.0014


--------------------------------------- Iteration      1(   1)  ---------------------------------------


vdW kernel read from vdw_kernel.bindat
  0.0000  0.2424  0.5071  0.7962  1.1119  1.4567  1.8333  2.2446  2.6937  3.1842
  3.7199  4.3049  4.9438  5.6415  6.4036  7.2358  8.1446  9.1372 10.2212 11.4050
 12.6979 14.1099 15.6519 17.3360 19.1751 21.1837 23.3773 25.7729 28.3892 31.2465
 34.3669 37.7748 41.4965 45.5611 50.0000

    POTLOK:  cpu time   52.9000: real time   53.0257
    SETDIJ:  cpu time    0.0480: real time    0.0456
     EDDAV:  cpu time   22.2720: real time   22.4474
 BZINTS: Fermi energy:  5.487996; 57.000000 electrons
         Band energy: -20.629475;  BLOECHL correction: -0.027286
       DOS:  cpu time    0.0080: real time    0.0068
    --------------------------------------------
      LOOP:  cpu time   75.2280: real time   75.5256

 eigenvalue-minimisations  :   960
 total energy-change (2. order) : 0.4127279E+03  (-0.1667459E+04)
 number of electron      57.0000000 magnetization      14.8000000
 augmentation part       57.0000000 magnetization      14.8000000

 Free energy of the ion-electron system (eV)
  ---------------------------------------------------
  alpha Z        PSCENC =        20.97303478
  Ewald energy   TEWEN  =      6221.61188061
  -Hartree energ DENC   =     -8427.49049463
  -exchange      EXHF   =         0.00000000
  -V(xc)+E(xc)   XCENC  =        25.72937997
  PAW double counting   =      1132.53073645    -1045.77553778
  entropy T*S    EENTRO =         0.00000000
  eigenvalues    EBANDS =       -20.62947458
  atomic energy  EATOM  =      2505.77835381
  Solvation  Ediel_sol  =         0.00000000
  ---------------------------------------------------
  free energy    TOTEN  =       412.72787863 eV

  energy without entropy =      412.72787863  energy(sigma->0) =      412.72787863


--------------------------------------------------------------------------------------------------------




--------------------------------------- Iteration      1(   2)  ---------------------------------------


     EDDAV:  cpu time   26.8760: real time   26.9494
 BZINTS: Fermi energy: -1.252214; 57.000000 electrons
         Band energy:-394.822162;  BLOECHL correction: -0.087942
       DOS:  cpu time    0.0040: real time    0.0047
    --------------------------------------------
      LOOP:  cpu time   26.8800: real time   26.9540

 eigenvalue-minimisations  :  1168
 total energy-change (2. order) :-0.3741927E+03  (-0.3440154E+03)
 number of electron      57.0000000 magnetization      14.8000000
 augmentation part       57.0000000 magnetization      14.8000000

 Free energy of the ion-electron system (eV)
  ---------------------------------------------------
  alpha Z        PSCENC =        20.97303478
  Ewald energy   TEWEN  =      6221.61188061
  -Hartree energ DENC   =     -8427.49049463
  -exchange      EXHF   =         0.00000000
  -V(xc)+E(xc)   XCENC  =        25.72937997
  PAW double counting   =      1132.53073645    -1045.77553778
  entropy T*S    EENTRO =         0.00000000
  eigenvalues    EBANDS =      -394.82216187
  atomic energy  EATOM  =      2505.77835381
  Solvation  Ediel_sol  =         0.00000000
  ---------------------------------------------------
  free energy    TOTEN  =        38.53519134 eV

  energy without entropy =       38.53519134  energy(sigma->0) =       38.53519134


--------------------------------------------------------------------------------------------------------




--------------------------------------- Iteration      1(   3)  ---------------------------------------


     EDDAV:  cpu time   31.0760: real time   31.4628
 BZINTS: Fermi energy: -2.773023; 57.000000 electrons
         Band energy:-483.331943;  BLOECHL correction: -0.010027
       DOS:  cpu time    0.0040: real time    0.0049
    --------------------------------------------
      LOOP:  cpu time   31.0800: real time   31.4677

 eigenvalue-minimisations  :  1392
 total energy-change (2. order) :-0.8850978E+02  (-0.8390177E+02)
 number of electron      57.0000000 magnetization      14.8000000
 augmentation part       57.0000000 magnetization      14.8000000

 Free energy of the ion-electron system (eV)
  ---------------------------------------------------
  alpha Z        PSCENC =        20.97303478
  Ewald energy   TEWEN  =      6221.61188061
  -Hartree energ DENC   =     -8427.49049463
  -exchange      EXHF   =         0.00000000
  -V(xc)+E(xc)   XCENC  =        25.72937997
  PAW double counting   =      1132.53073645    -1045.77553778
  entropy T*S    EENTRO =         0.00000000
  eigenvalues    EBANDS =      -483.33194302
  atomic energy  EATOM  =      2505.77835381
  Solvation  Ediel_sol  =         0.00000000
  ---------------------------------------------------
  free energy    TOTEN  =       -49.97458981 eV

  energy without entropy =      -49.97458981  energy(sigma->0) =      -49.97458981


--------------------------------------------------------------------------------------------------------




--------------------------------------- Iteration      1(   4)  ---------------------------------------


     EDDAV:  cpu time   30.6200: real time   30.8713
 BZINTS: Fermi energy: -2.818207; 57.000000 electrons
         Band energy:-488.402552;  BLOECHL correction: -0.011564
       DOS:  cpu time    0.0040: real time    0.0052
    --------------------------------------------
      LOOP:  cpu time   30.6240: real time   30.8764

 eigenvalue-minimisations  :  1360
 total energy-change (2. order) :-0.5070609E+01  (-0.4940661E+01)
 number of electron      57.0000000 magnetization      14.8000000
 augmentation part       57.0000000 magnetization      14.8000000

 Free energy of the ion-electron system (eV)
  ---------------------------------------------------
  alpha Z        PSCENC =        20.97303478
  Ewald energy   TEWEN  =      6221.61188061
  -Hartree energ DENC   =     -8427.49049463
  -exchange      EXHF   =         0.00000000
  -V(xc)+E(xc)   XCENC  =        25.72937997
  PAW double counting   =      1132.53073645    -1045.77553778
  entropy T*S    EENTRO =         0.00000000
  eigenvalues    EBANDS =      -488.40255197
  atomic energy  EATOM  =      2505.77835381
  Solvation  Ediel_sol  =         0.00000000
  ---------------------------------------------------
  free energy    TOTEN  =       -55.04519876 eV

  energy without entropy =      -55.04519876  energy(sigma->0) =      -55.04519876


--------------------------------------------------------------------------------------------------------




--------------------------------------- Iteration      1(   5)  ---------------------------------------


     EDDAV:  cpu time   30.3640: real time   30.4508
 BZINTS: Fermi energy: -2.819683; 57.000000 electrons
         Band energy:-488.549384;  BLOECHL correction: -0.011671
       DOS:  cpu time    0.0080: real time    0.0078
    CHARGE:  cpu time    1.9800: real time    1.9865
    MIXING:  cpu time    0.0400: real time    0.0417
    --------------------------------------------
      LOOP:  cpu time   32.3920: real time   32.4867

 eigenvalue-minimisations  :  1344
 total energy-change (2. order) :-0.1468324E+00  (-0.1466418E+00)
 number of electron      56.9999994 magnetization      13.5348189
 augmentation part       -4.8490913 magnetization      12.2795701

 Broyden mixing:
  rms(total) = 0.31179E+01    rms(broyden)= 0.31179E+01
  rms(prec ) = 0.33902E+01
  weight for this iteration     100.00

 Free energy of the ion-electron system (eV)
  ---------------------------------------------------
  alpha Z        PSCENC =        20.97303478
  Ewald energy   TEWEN  =      6221.61188061
  -Hartree energ DENC   =     -8427.49049463
  -exchange      EXHF   =         0.00000000
  -V(xc)+E(xc)   XCENC  =        25.72937997
  PAW double counting   =      1132.53073645    -1045.77553778
  entropy T*S    EENTRO =         0.00000000
  eigenvalues    EBANDS =      -488.54938438
  atomic energy  EATOM  =      2505.77835381
  Solvation  Ediel_sol  =         0.00000000
  ---------------------------------------------------
  free energy    TOTEN  =       -55.19203117 eV

  energy without entropy =      -55.19203117  energy(sigma->0) =      -55.19203117


--------------------------------------------------------------------------------------------------------




--------------------------------------- Iteration      1(   6)  ---------------------------------------


    POTLOK:  cpu time   52.2600: real time   52.3334
    SETDIJ:  cpu time    0.0440: real time    0.0446
     EDDAV:  cpu time   32.8400: real time   32.9459
 BZINTS: Fermi energy: -5.129484; 57.000000 electrons
         Band energy:-614.873785;  BLOECHL correction: -0.020786
       DOS:  cpu time    0.0040: real time    0.0068
    CHARGE:  cpu time    1.9080: real time    1.9714
    MIXING:  cpu time    0.0400: real time    0.0416
    --------------------------------------------
      LOOP:  cpu time   87.0960: real time   87.3436

 eigenvalue-minimisations  :  1456
 total energy-change (2. order) :-0.7924668E+02  (-0.3574423E+02)
 number of electron      56.9999992 magnetization      13.2184327
 augmentation part        9.3476728 magnetization       9.4138765

 Broyden mixing:
  rms(total) = 0.64368E+01    rms(broyden)= 0.64366E+01
  rms(prec ) = 0.72533E+01
  weight for this iteration     100.00

 eigenvalues of (default mixing * dielectric matrix)
  average eigenvalue GAMMA=   0.3627
  0.3627

 Free energy of the ion-electron system (eV)
  ---------------------------------------------------
  alpha Z        PSCENC =        20.97303478
  Ewald energy   TEWEN  =      6221.61188061
  -Hartree energ DENC   =     -8390.25781877
  -exchange      EXHF   =         0.00000000
  -V(xc)+E(xc)   XCENC  =        25.38185341
  PAW double counting   =      1066.18555786     -969.23779147
  entropy T*S    EENTRO =         0.00000000
  eigenvalues    EBANDS =      -614.87378478
  atomic energy  EATOM  =      2505.77835381
  Solvation  Ediel_sol  =         0.00000000
  ---------------------------------------------------
  free energy    TOTEN  =      -134.43871454 eV

  energy without entropy =     -134.43871454  energy(sigma->0) =     -134.43871454


--------------------------------------------------------------------------------------------------------




--------------------------------------- Iteration      1(   7)  ---------------------------------------


    POTLOK:  cpu time   52.0800: real time   52.1644
    SETDIJ:  cpu time    0.0480: real time    0.0464
     EDDAV:  cpu time   25.9360: real time   25.9996
 BZINTS: Fermi energy: -3.844484; 57.000000 electrons
         Band energy:-477.143404;  BLOECHL correction: -0.008233
       DOS:  cpu time    0.0040: real time    0.0072
    CHARGE:  cpu time    1.9240: real time    1.9352
    MIXING:  cpu time    0.0440: real time    0.0428
    --------------------------------------------
      LOOP:  cpu time   80.0360: real time   80.1956

 eigenvalue-minimisations  :  1136
 total energy-change (2. order) : 0.9339846E+02  (-0.3160289E+02)
 number of electron      56.9999994 magnetization      12.8631681
 augmentation part       -1.8618442 magnetization       9.5928203

 Broyden mixing:
  rms(total) = 0.19162E+01    rms(broyden)= 0.19158E+01
  rms(prec ) = 0.19445E+01
  weight for this iteration     100.00

 eigenvalues of (default mixing * dielectric matrix)
  average eigenvalue GAMMA=   0.3754
  0.4891  0.2616

 Free energy of the ion-electron system (eV)
  ---------------------------------------------------
  alpha Z        PSCENC =        20.97303478
  Ewald energy   TEWEN  =      6221.61188061
  -Hartree energ DENC   =     -8422.82604302
  -exchange      EXHF   =         0.00000000
  -V(xc)+E(xc)   XCENC  =        23.97568363
  PAW double counting   =      1134.16271885    -1047.57248109
  entropy T*S    EENTRO =         0.00000000
  eigenvalues    EBANDS =      -477.14340386
  atomic energy  EATOM  =      2505.77835381
  Solvation  Ediel_sol  =         0.00000000
  ---------------------------------------------------
  free energy    TOTEN  =       -41.04025630 eV

  energy without entropy =      -41.04025630  energy(sigma->0) =      -41.04025630


--------------------------------------------------------------------------------------------------------




--------------------------------------- Iteration      1(   8)  ---------------------------------------


    POTLOK:  cpu time   51.8400: real time   51.9957
    SETDIJ:  cpu time    0.0480: real time    0.0475
     EDDAV:  cpu time   31.6680: real time   32.0311
 BZINTS: Fermi energy: -4.239336; 57.000000 electrons
         Band energy:-486.123975;  BLOECHL correction:  0.000000
       DOS:  cpu time    0.0000: real time    0.0035
    CHARGE:  cpu time    1.9000: real time    1.9061
    MIXING:  cpu time    0.0400: real time    0.0411
    --------------------------------------------
      LOOP:  cpu time   85.4960: real time   86.0250

 eigenvalue-minimisations  :  1424
 total energy-change (2. order) :-0.3805289E+01  (-0.1424812E+01)
 number of electron      56.9999994 magnetization      12.3108326
 augmentation part       -1.0006243 magnetization       9.1451754

 Broyden mixing:
  rms(total) = 0.10730E+01    rms(broyden)= 0.10730E+01
  rms(prec ) = 0.10804E+01
  weight for this iteration     100.00

 eigenvalues of (default mixing * dielectric matrix)
  average eigenvalue GAMMA=   0.5603
  0.7055  0.7055  0.2701

 Free energy of the ion-electron system (eV)
  ---------------------------------------------------
  alpha Z        PSCENC =        20.97303478
  Ewald energy   TEWEN  =      6221.61188061
  -Hartree energ DENC   =     -8417.90362465
  -exchange      EXHF   =         0.00000000
  -V(xc)+E(xc)   XCENC  =        23.46434357
  PAW double counting   =      1124.35299216    -1036.99855059
  entropy T*S    EENTRO =         0.00000000
  eigenvalues    EBANDS =      -486.12397481
  atomic energy  EATOM  =      2505.77835381
  Solvation  Ediel_sol  =         0.00000000
  ---------------------------------------------------
  free energy    TOTEN  =       -44.84554512 eV

  energy without entropy =      -44.84554512  energy(sigma->0) =      -44.84554512


--------------------------------------------------------------------------------------------------------




--------------------------------------- Iteration      1(   9)  ---------------------------------------


    POTLOK:  cpu time   50.8320: real time   51.0803
    SETDIJ:  cpu time    0.0400: real time    0.0419
     EDDAV:  cpu time   33.7640: real time   34.0112
 BZINTS: Fermi energy: -4.259084; 57.000000 electrons
         Band energy:-485.075095;  BLOECHL correction:  0.000000
       DOS:  cpu time    0.0000: real time    0.0033
    CHARGE:  cpu time    1.8960: real time    1.8955
    MIXING:  cpu time    0.0400: real time    0.0416
    --------------------------------------------
      LOOP:  cpu time   86.5720: real time   87.0738

 eigenvalue-minimisations  :  1552
 total energy-change (2. order) :-0.1758195E+01  (-0.1809942E+00)
 number of electron      56.9999994 magnetization      11.8379702
 augmentation part       -0.9803016 magnetization       9.1759648

 Broyden mixing:
  rms(total) = 0.57933E+00    rms(broyden)= 0.57933E+00
  rms(prec ) = 0.59976E+00
  weight for this iteration     100.00

 eigenvalues of (default mixing * dielectric matrix)
  average eigenvalue GAMMA=   0.5942
  0.8413  0.8413  0.2670  0.4272

 Free energy of the ion-electron system (eV)
  ---------------------------------------------------
  alpha Z        PSCENC =        20.97303478
  Ewald energy   TEWEN  =      6221.61188061
  -Hartree energ DENC   =     -8422.37099834
  -exchange      EXHF   =         0.00000000
  -V(xc)+E(xc)   XCENC  =        25.15507980
  PAW double counting   =      1132.91662332    -1045.59261961
  entropy T*S    EENTRO =         0.00000000
  eigenvalues    EBANDS =      -485.07509477
  atomic energy  EATOM  =      2505.77835381
  Solvation  Ediel_sol  =         0.00000000
  ---------------------------------------------------
  free energy    TOTEN  =       -46.60374039 eV

  energy without entropy =      -46.60374039  energy(sigma->0) =      -46.60374039


--------------------------------------------------------------------------------------------------------




--------------------------------------- Iteration      1(  10)  ---------------------------------------


    POTLOK:  cpu time   50.9360: real time   51.0180
    SETDIJ:  cpu time    0.0440: real time    0.0430
     EDDAV:  cpu time   33.7000: real time   33.8947
 BZINTS: Fermi energy: -4.240357; 57.000000 electrons
         Band energy:-485.008632;  BLOECHL correction:  0.000000
       DOS:  cpu time    0.0000: real time    0.0032
    CHARGE:  cpu time    1.8880: real time    1.8948
    MIXING:  cpu time    0.0520: real time    0.0485
    --------------------------------------------
      LOOP:  cpu time   86.6200: real time   86.9021

 eigenvalue-minimisations  :  1536
 total energy-change (2. order) :-0.3790476E+00  (-0.1224951E+00)
 number of electron      56.9999994 magnetization      11.0636367
 augmentation part       -0.9287340 magnetization       8.6257324

 Broyden mixing:
  rms(total) = 0.37452E+00    rms(broyden)= 0.37452E+00
  rms(prec ) = 0.38921E+00
  weight for this iteration     100.00

 eigenvalues of (default mixing * dielectric matrix)
  average eigenvalue GAMMA=   0.6825
  1.0619  1.0619  0.7258  0.2681  0.2948

 Free energy of the ion-electron system (eV)
  ---------------------------------------------------
  alpha Z        PSCENC =        20.97303478
  Ewald energy   TEWEN  =      6221.61188061
  -Hartree energ DENC   =     -8423.71750307
  -exchange      EXHF   =         0.00000000
  -V(xc)+E(xc)   XCENC  =        26.33350809
  PAW double counting   =      1133.72764257    -1046.68107262
  entropy T*S    EENTRO =         0.00000000
  eigenvalues    EBANDS =      -485.00863215
  atomic energy  EATOM  =      2505.77835381
  Solvation  Ediel_sol  =         0.00000000
  ---------------------------------------------------
  free energy    TOTEN  =       -46.98278797 eV

  energy without entropy =      -46.98278797  energy(sigma->0) =      -46.98278797


--------------------------------------------------------------------------------------------------------




--------------------------------------- Iteration      1(  11)  ---------------------------------------


    POTLOK:  cpu time   50.8560: real time   51.0353
    SETDIJ:  cpu time    0.0400: real time    0.0423
     EDDAV:  cpu time   33.2200: real time   33.4495
 BZINTS: Fermi energy: -4.272499; 57.000000 electrons
         Band energy:-485.761287;  BLOECHL correction:  0.000000
       DOS:  cpu time    0.0000: real time    0.0034
    CHARGE:  cpu time    1.9080: real time    1.9106
    MIXING:  cpu time    0.0400: real time    0.0436
    --------------------------------------------
      LOOP:  cpu time   86.0640: real time   86.4847

 eigenvalue-minimisations  :  1520
 total energy-change (2. order) :-0.2583040E+00  (-0.4331321E-01)
 number of electron      56.9999994 magnetization      10.1789409
 augmentation part       -0.8732632 magnetization       7.9219312

 Broyden mixing:
  rms(total) = 0.30658E+00    rms(broyden)= 0.30657E+00
  rms(prec ) = 0.30740E+00
  weight for this iteration     100.00

 eigenvalues of (default mixing * dielectric matrix)
  average eigenvalue GAMMA=   0.8550
  2.1916  0.8699  0.8699  0.6351  0.2681  0.2954

 Free energy of the ion-electron system (eV)
  ---------------------------------------------------
  alpha Z        PSCENC =        20.97303478
  Ewald energy   TEWEN  =      6221.61188061
  -Hartree energ DENC   =     -8423.96161189
  -exchange      EXHF   =         0.00000000
  -V(xc)+E(xc)   XCENC  =        27.48054010
  PAW double counting   =      1130.89072105    -1044.25272327
  entropy T*S    EENTRO =         0.00000000
  eigenvalues    EBANDS =      -485.76128715
  atomic energy  EATOM  =      2505.77835381
  Solvation  Ediel_sol  =         0.00000000
  ---------------------------------------------------
  free energy    TOTEN  =       -47.24109196 eV

  energy without entropy =      -47.24109196  energy(sigma->0) =      -47.24109196


--------------------------------------------------------------------------------------------------------




--------------------------------------- Iteration      1(  12)  ---------------------------------------


    POTLOK:  cpu time   50.9720: real time   51.1503
    SETDIJ:  cpu time    0.0440: real time    0.0429
     EDDAV:  cpu time   29.0000: real time   29.2530
 BZINTS: Fermi energy: -4.234963; 57.000000 electrons
         Band energy:-486.498909;  BLOECHL correction:  0.000000
       DOS:  cpu time    0.0000: real time    0.0040
    CHARGE:  cpu time    1.9000: real time    1.9028
    MIXING:  cpu time    0.0440: real time    0.0436
    --------------------------------------------
      LOOP:  cpu time   81.9600: real time   82.3966

 eigenvalue-minimisations  :  1312
 total energy-change (2. order) :-0.1515813E+00  (-0.1215234E-01)
 number of electron      56.9999994 magnetization       9.3751035
 augmentation part       -0.9011436 magnetization       7.1614324

 Broyden mixing:
  rms(total) = 0.32660E+00    rms(broyden)= 0.32660E+00
  rms(prec ) = 0.32790E+00
  weight for this iteration     100.00

 eigenvalues of (default mixing * dielectric matrix)
  average eigenvalue GAMMA=   0.9532
  2.6420  1.0383  1.0383  0.6936  0.6936  0.2680  0.2986

 Free energy of the ion-electron system (eV)
  ---------------------------------------------------
  alpha Z        PSCENC =        20.97303478
  Ewald energy   TEWEN  =      6221.61188061
  -Hartree energ DENC   =     -8423.63714558
  -exchange      EXHF   =         0.00000000
  -V(xc)+E(xc)   XCENC  =        27.78676992
  PAW double counting   =      1130.12944223    -1043.53610010
  entropy T*S    EENTRO =         0.00000000
  eigenvalues    EBANDS =      -486.49890897
  atomic energy  EATOM  =      2505.77835381
  Solvation  Ediel_sol  =         0.00000000
  ---------------------------------------------------
  free energy    TOTEN  =       -47.39267329 eV

  energy without entropy =      -47.39267329  energy(sigma->0) =      -47.39267329


--------------------------------------------------------------------------------------------------------




--------------------------------------- Iteration      1(  13)  ---------------------------------------


    POTLOK:  cpu time   51.0160: real time   51.1514
    SETDIJ:  cpu time    0.0600: real time    0.0590
     EDDAV:  cpu time   32.8200: real time   33.1080
 BZINTS: Fermi energy: -4.266448; 57.000000 electrons
         Band energy:-486.542780;  BLOECHL correction:  0.000000
       DOS:  cpu time    0.0000: real time    0.0031
    CHARGE:  cpu time    1.9120: real time    1.9178
    MIXING:  cpu time    0.0440: real time    0.0452
    --------------------------------------------
      LOOP:  cpu time   85.8520: real time   86.2845

 eigenvalue-minimisations  :  1504
 total energy-change (2. order) :-0.1945649E+00  (-0.4588234E-02)
 number of electron      56.9999994 magnetization       8.2141173
 augmentation part       -0.9192417 magnetization       5.9251752

 Broyden mixing:
  rms(total) = 0.20958E+00    rms(broyden)= 0.20958E+00
  rms(prec ) = 0.21089E+00
  weight for this iteration     100.00

 eigenvalues of (default mixing * dielectric matrix)
  average eigenvalue GAMMA=   1.1774
  4.1429  1.2030  1.2030  0.8284  0.8284  0.6475  0.2680  0.2981

 Free energy of the ion-electron system (eV)
  ---------------------------------------------------
  alpha Z        PSCENC =        20.97303478
  Ewald energy   TEWEN  =      6221.61188061
  -Hartree energ DENC   =     -8422.93291255
  -exchange      EXHF   =         0.00000000
  -V(xc)+E(xc)   XCENC  =        27.03160464
  PAW double counting   =      1128.66749661    -1042.17391590
  entropy T*S    EENTRO =         0.00000000
  eigenvalues    EBANDS =      -486.54278024
  atomic energy  EATOM  =      2505.77835381
  Solvation  Ediel_sol  =         0.00000000
  ---------------------------------------------------
  free energy    TOTEN  =       -47.58723824 eV

  energy without entropy =      -47.58723824  energy(sigma->0) =      -47.58723824


--------------------------------------------------------------------------------------------------------




--------------------------------------- Iteration      1(  14)  ---------------------------------------


    POTLOK:  cpu time   50.8000: real time   51.1856
    SETDIJ:  cpu time    0.0440: real time    0.0433
     EDDAV:  cpu time   30.5440: real time   30.7455
 BZINTS: Fermi energy: -4.228921; 57.000000 electrons
         Band energy:-486.703899;  BLOECHL correction:  0.000000
       DOS:  cpu time    0.0000: real time    0.0037
    CHARGE:  cpu time    1.8960: real time    1.9013
    MIXING:  cpu time    0.0480: real time    0.0499
    --------------------------------------------
      LOOP:  cpu time   83.3320: real time   83.9292

 eigenvalue-minimisations  :  1392
 total energy-change (2. order) :-0.1339936E+00  (-0.4231307E-02)
 number of electron      56.9999994 magnetization       7.1883684
 augmentation part       -0.9130289 magnetization       4.8489320

 Broyden mixing:
  rms(total) = 0.85926E-01    rms(broyden)= 0.85925E-01
  rms(prec ) = 0.88296E-01
  weight for this iteration     100.00

 eigenvalues of (default mixing * dielectric matrix)
  average eigenvalue GAMMA=   1.4564
  6.2671  1.7294  1.1209  1.1209  0.8332  0.8332  0.6366  0.2680  0.2979

 Free energy of the ion-electron system (eV)
  ---------------------------------------------------
  alpha Z        PSCENC =        20.97303478
  Ewald energy   TEWEN  =      6221.61188061
  -Hartree energ DENC   =     -8422.21375109
  -exchange      EXHF   =         0.00000000
  -V(xc)+E(xc)   XCENC  =        26.21627136
  PAW double counting   =      1127.97785883    -1041.36098130
  entropy T*S    EENTRO =         0.00000000
  eigenvalues    EBANDS =      -486.70389889
  atomic energy  EATOM  =      2505.77835381
  Solvation  Ediel_sol  =         0.00000000
  ---------------------------------------------------
  free energy    TOTEN  =       -47.72123189 eV

  energy without entropy =      -47.72123189  energy(sigma->0) =      -47.72123189


--------------------------------------------------------------------------------------------------------




--------------------------------------- Iteration      1(  15)  ---------------------------------------


    POTLOK:  cpu time   50.7400: real time   51.1706
    SETDIJ:  cpu time    0.0400: real time    0.0427
     EDDAV:  cpu time   25.6080: real time   25.8830
 BZINTS: Fermi energy: -4.175241; 57.000000 electrons
         Band energy:-486.436485;  BLOECHL correction:  0.000000
       DOS:  cpu time    0.0000: real time    0.0035
    CHARGE:  cpu time    1.9040: real time    1.9109
    MIXING:  cpu time    0.0720: real time    0.0736
    --------------------------------------------
      LOOP:  cpu time   78.3640: real time   79.0842

 eigenvalue-minimisations  :  1152
 total energy-change (2. order) :-0.6387875E-01  (-0.3703826E-02)
 number of electron      56.9999994 magnetization       7.0296867
 augmentation part       -0.8823387 magnetization       4.6801982

 Broyden mixing:
  rms(total) = 0.38637E-01    rms(broyden)= 0.38636E-01
  rms(prec ) = 0.41539E-01
  weight for this iteration     100.00

 eigenvalues of (default mixing * dielectric matrix)
  average eigenvalue GAMMA=   1.6730
  8.3995  2.3552  1.1669  1.1669  0.8497  0.8497  0.2680  0.2978  0.7407  0.6359

 Free energy of the ion-electron system (eV)
  ---------------------------------------------------
  alpha Z        PSCENC =        20.97303478
  Ewald energy   TEWEN  =      6221.61188061
  -Hartree energ DENC   =     -8422.28676213
  -exchange      EXHF   =         0.00000000
  -V(xc)+E(xc)   XCENC  =        25.97704344
  PAW double counting   =      1127.81848582    -1041.22066226
  entropy T*S    EENTRO =         0.00000000
  eigenvalues    EBANDS =      -486.43648471
  atomic energy  EATOM  =      2505.77835381
  Solvation  Ediel_sol  =         0.00000000
  ---------------------------------------------------
  free energy    TOTEN  =       -47.78511064 eV

  energy without entropy =      -47.78511064  energy(sigma->0) =      -47.78511064


--------------------------------------------------------------------------------------------------------




--------------------------------------- Iteration      1(  16)  ---------------------------------------


    POTLOK:  cpu time   51.0000: real time   51.1415
    SETDIJ:  cpu time    0.0400: real time    0.0427
     EDDAV:  cpu time   28.4960: real time   28.5709
 BZINTS: Fermi energy: -4.201489; 57.000000 electrons
         Band energy:-486.484446;  BLOECHL correction:  0.000000
       DOS:  cpu time    0.0040: real time    0.0037
    CHARGE:  cpu time    1.9360: real time    1.9419
    MIXING:  cpu time    0.0480: real time    0.0474
    --------------------------------------------
      LOOP:  cpu time   81.5240: real time   81.7480

 eigenvalue-minimisations  :  1280
 total energy-change (2. order) :-0.2397632E-02  (-0.1033195E-02)
 number of electron      56.9999994 magnetization       7.0080413
 augmentation part       -0.9103489 magnetization       4.6454713

 Broyden mixing:
  rms(total) = 0.16100E-01    rms(broyden)= 0.16100E-01
  rms(prec ) = 0.17205E-01
  weight for this iteration     100.00

 eigenvalues of (default mixing * dielectric matrix)
  average eigenvalue GAMMA=   1.6830
  9.1009  2.4493  1.2163  1.2163  0.2680  0.2978  0.8976  0.8976  0.6322  0.7682
  0.7682

 Free energy of the ion-electron system (eV)
  ---------------------------------------------------
  alpha Z        PSCENC =        20.97303478
  Ewald energy   TEWEN  =      6221.61188061
  -Hartree energ DENC   =     -8422.25942254
  -exchange      EXHF   =         0.00000000
  -V(xc)+E(xc)   XCENC  =        25.95701934
  PAW double counting   =      1128.16391964    -1041.52784779
  entropy T*S    EENTRO =         0.00000000
  eigenvalues    EBANDS =      -486.48444612
  atomic energy  EATOM  =      2505.77835381
  Solvation  Ediel_sol  =         0.00000000
  ---------------------------------------------------
  free energy    TOTEN  =       -47.78750827 eV

  energy without entropy =      -47.78750827  energy(sigma->0) =      -47.78750827


--------------------------------------------------------------------------------------------------------




--------------------------------------- Iteration      1(  17)  ---------------------------------------


    POTLOK:  cpu time   50.9640: real time   51.0172
    SETDIJ:  cpu time    0.0400: real time    0.0424
     EDDAV:  cpu time   31.8120: real time   32.1005
 BZINTS: Fermi energy: -4.210753; 57.000000 electrons
         Band energy:-486.615206;  BLOECHL correction:  0.000000
       DOS:  cpu time    0.0000: real time    0.0034
    CHARGE:  cpu time    1.8920: real time    1.8981
    MIXING:  cpu time    0.0480: real time    0.0482
    --------------------------------------------
      LOOP:  cpu time   84.7560: real time   85.1097

 eigenvalue-minimisations  :  1456
 total energy-change (2. order) :-0.5844213E-03  (-0.1504912E-03)
 number of electron      56.9999994 magnetization       7.0078073
 augmentation part       -0.9209638 magnetization       4.6352608

 Broyden mixing:
  rms(total) = 0.63100E-02    rms(broyden)= 0.63098E-02
  rms(prec ) = 0.67144E-02
  weight for this iteration     100.00

 eigenvalues of (default mixing * dielectric matrix)
  average eigenvalue GAMMA=   1.6534
  9.2198  2.4626  1.2791  1.2791  0.2680  0.2978  0.9898  0.9898  0.8640  0.8640
  0.6300  0.6967

 Free energy of the ion-electron system (eV)
  ---------------------------------------------------
  alpha Z        PSCENC =        20.97303478
  Ewald energy   TEWEN  =      6221.61188061
  -Hartree energ DENC   =     -8422.12100984
  -exchange      EXHF   =         0.00000000
  -V(xc)+E(xc)   XCENC  =        25.95227121
  PAW double counting   =      1128.06981808    -1041.43723512
  entropy T*S    EENTRO =         0.00000000
  eigenvalues    EBANDS =      -486.61520621
  atomic energy  EATOM  =      2505.77835381
  Solvation  Ediel_sol  =         0.00000000
  ---------------------------------------------------
  free energy    TOTEN  =       -47.78809269 eV

  energy without entropy =      -47.78809269  energy(sigma->0) =      -47.78809269


--------------------------------------------------------------------------------------------------------




--------------------------------------- Iteration      1(  18)  ---------------------------------------


    POTLOK:  cpu time   51.0920: real time   51.1367
    SETDIJ:  cpu time    0.0400: real time    0.0417
     EDDAV:  cpu time   24.4080: real time   24.4711
 BZINTS: Fermi energy: -4.216673; 57.000000 electrons
         Band energy:-486.759797;  BLOECHL correction:  0.000000
       DOS:  cpu time    0.0000: real time    0.0038
    CHARGE:  cpu time    1.8800: real time    1.9082
    MIXING:  cpu time    0.0480: real time    0.0508
    --------------------------------------------
      LOOP:  cpu time   77.4680: real time   77.6123

 eigenvalue-minimisations  :  1072
 total energy-change (2. order) :-0.5237970E-03  (-0.3999274E-04)
 number of electron      56.9999994 magnetization       7.0055084
 augmentation part       -0.9211712 magnetization       4.6331115

 Broyden mixing:
  rms(total) = 0.46516E-02    rms(broyden)= 0.46515E-02
  rms(prec ) = 0.49406E-02
  weight for this iteration     100.00

 eigenvalues of (default mixing * dielectric matrix)
  average eigenvalue GAMMA=   1.6275
  9.2624  2.5116  1.6173  1.1996  1.1996  0.2680  0.2978  0.9004  0.9004  0.8748
  0.8055  0.6257  0.6945

 Free energy of the ion-electron system (eV)
  ---------------------------------------------------
  alpha Z        PSCENC =        20.97303478
  Ewald energy   TEWEN  =      6221.61188061
  -Hartree energ DENC   =     -8421.98645380
  -exchange      EXHF   =         0.00000000
  -V(xc)+E(xc)   XCENC  =        25.94446815
  PAW double counting   =      1128.08637903    -1041.43648235
  entropy T*S    EENTRO =         0.00000000
  eigenvalues    EBANDS =      -486.75979673
  atomic energy  EATOM  =      2505.77835381
  Solvation  Ediel_sol  =         0.00000000
  ---------------------------------------------------
  free energy    TOTEN  =       -47.78861649 eV

  energy without entropy =      -47.78861649  energy(sigma->0) =      -47.78861649


--------------------------------------------------------------------------------------------------------




--------------------------------------- Iteration      1(  19)  ---------------------------------------


    POTLOK:  cpu time   50.9640: real time   51.0467
    SETDIJ:  cpu time    0.0440: real time    0.0469
     EDDAV:  cpu time   21.6720: real time   21.7208
 BZINTS: Fermi energy: -4.196229; 57.000000 electrons
         Band energy:-486.845265;  BLOECHL correction:  0.000000
       DOS:  cpu time    0.0000: real time    0.0035
    CHARGE:  cpu time    1.8920: real time    1.8958
    MIXING:  cpu time    0.0600: real time    0.0605
    --------------------------------------------
      LOOP:  cpu time   74.6320: real time   74.7742

 eigenvalue-minimisations  :   896
 total energy-change (2. order) :-0.1732819E-03  (-0.9310365E-05)
 number of electron      56.9999994 magnetization       7.0044356
 augmentation part       -0.9195084 magnetization       4.6337124

 Broyden mixing:
  rms(total) = 0.15447E-02    rms(broyden)= 0.15447E-02
  rms(prec ) = 0.18125E-02
  weight for this iteration     100.00

 eigenvalues of (default mixing * dielectric matrix)
  average eigenvalue GAMMA=   1.6227
  9.2700  2.6089  2.2140  1.2258  1.2258  0.2680  0.2978  0.9574  0.9574  0.8395
  0.8395  0.6247  0.6942  0.6942

 Free energy of the ion-electron system (eV)
  ---------------------------------------------------
  alpha Z        PSCENC =        20.97303478
  Ewald energy   TEWEN  =      6221.61188061
  -Hartree energ DENC   =     -8421.90905688
  -exchange      EXHF   =         0.00000000
  -V(xc)+E(xc)   XCENC  =        25.95205754
  PAW double counting   =      1128.10418172    -1041.45397623
  entropy T*S    EENTRO =         0.00000000
  eigenvalues    EBANDS =      -486.84526512
  atomic energy  EATOM  =      2505.77835381
  Solvation  Ediel_sol  =         0.00000000
  ---------------------------------------------------
  free energy    TOTEN  =       -47.78878977 eV

  energy without entropy =      -47.78878977  energy(sigma->0) =      -47.78878977


--------------------------------------------------------------------------------------------------------




--------------------------------------- Iteration      1(  20)  ---------------------------------------


    POTLOK:  cpu time   50.9080: real time   50.9290
    SETDIJ:  cpu time    0.0440: real time    0.0421
     EDDAV:  cpu time   22.3720: real time   22.4186
 BZINTS: Fermi energy: -4.228018; 57.000000 electrons
         Band energy:-486.903384;  BLOECHL correction:  0.000000
       DOS:  cpu time    0.0040: real time    0.0036
    CHARGE:  cpu time    1.9360: real time    1.9430
    MIXING:  cpu time    0.0520: real time    0.0520
    --------------------------------------------
      LOOP:  cpu time   75.3160: real time   75.3882

 eigenvalue-minimisations  :   928
 total energy-change (2. order) :-0.1110978E-03  (-0.4290992E-05)
 number of electron      56.9999994 magnetization       7.0025450
 augmentation part       -0.9188301 magnetization       4.6330803

 Broyden mixing:
  rms(total) = 0.67527E-03    rms(broyden)= 0.67525E-03
  rms(prec ) = 0.10481E-02
  weight for this iteration     100.00

 eigenvalues of (default mixing * dielectric matrix)
  average eigenvalue GAMMA=   1.5938
  9.2899  2.7749  2.1791  1.2359  1.2359  0.2680  0.2978  1.0136  1.0136  0.8970
  0.8970  0.7714  0.7714  0.6426  0.6198

 Free energy of the ion-electron system (eV)
  ---------------------------------------------------
  alpha Z        PSCENC =        20.97303478
  Ewald energy   TEWEN  =      6221.61188061
  -Hartree energ DENC   =     -8421.85620121
  -exchange      EXHF   =         0.00000000
  -V(xc)+E(xc)   XCENC  =        25.95647765
  PAW double counting   =      1128.13934339    -1041.48840572
  entropy T*S    EENTRO =         0.00000000
  eigenvalues    EBANDS =      -486.90338419
  atomic energy  EATOM  =      2505.77835381
  Solvation  Ediel_sol  =         0.00000000
  ---------------------------------------------------
  free energy    TOTEN  =       -47.78890087 eV

  energy without entropy =      -47.78890087  energy(sigma->0) =      -47.78890087


--------------------------------------------------------------------------------------------------------




--------------------------------------- Iteration      1(  21)  ---------------------------------------


    POTLOK:  cpu time   50.7920: real time   50.8828
    SETDIJ:  cpu time    0.0440: real time    0.0423
     EDDAV:  cpu time   19.7840: real time   19.8786
 BZINTS: Fermi energy: -4.203677; 57.000000 electrons
         Band energy:-486.942928;  BLOECHL correction:  0.000000
       DOS:  cpu time    0.0000: real time    0.0034
    CHARGE:  cpu time    1.9240: real time    1.9303
    MIXING:  cpu time    0.0520: real time    0.0528
    --------------------------------------------
      LOOP:  cpu time   72.5960: real time   72.7901

 eigenvalue-minimisations  :   800
 total energy-change (2. order) :-0.1244303E-03  (-0.2563404E-05)
 number of electron      56.9999994 magnetization       7.0018598
 augmentation part       -0.9184415 magnetization       4.6326175

 Broyden mixing:
  rms(total) = 0.39041E-03    rms(broyden)= 0.39040E-03
  rms(prec ) = 0.77014E-03
  weight for this iteration     100.00

 eigenvalues of (default mixing * dielectric matrix)
  average eigenvalue GAMMA=   1.5626
  9.2925  2.8274  2.1901  1.2311  1.2311  1.1488  1.1488  0.2680  0.2978  0.9010
  0.9010  0.8003  0.8003  0.7062  0.6339  0.6231

 Free energy of the ion-electron system (eV)
  ---------------------------------------------------
  alpha Z        PSCENC =        20.97303478
  Ewald energy   TEWEN  =      6221.61188061
  -Hartree energ DENC   =     -8421.81520855
  -exchange      EXHF   =         0.00000000
  -V(xc)+E(xc)   XCENC  =        25.95658450
  PAW double counting   =      1128.16303394    -1041.51377604
  entropy T*S    EENTRO =         0.00000000
  eigenvalues    EBANDS =      -486.94292836
  atomic energy  EATOM  =      2505.77835381
  Solvation  Ediel_sol  =         0.00000000
  ---------------------------------------------------
  free energy    TOTEN  =       -47.78902530 eV

  energy without entropy =      -47.78902530  energy(sigma->0) =      -47.78902530


--------------------------------------------------------------------------------------------------------




--------------------------------------- Iteration      1(  22)  ---------------------------------------


    POTLOK:  cpu time   50.9120: real time   50.9669
    SETDIJ:  cpu time    0.0440: real time    0.0427
     EDDAV:  cpu time   23.2600: real time   23.3325
 BZINTS: Fermi energy: -4.205141; 57.000000 electrons
         Band energy:-486.990430;  BLOECHL correction:  0.000000
       DOS:  cpu time    0.0040: real time    0.0012
    --------------------------------------------
      LOOP:  cpu time   74.2200: real time   74.3432

 eigenvalue-minimisations  :   960
 total energy-change (2. order) :-0.6767932E-04  (-0.1841404E-05)
 number of electron      56.9999994 magnetization       7.0018598
 augmentation part       -0.9184415 magnetization       4.6326175

 Free energy of the ion-electron system (eV)
  ---------------------------------------------------
  alpha Z        PSCENC =        20.97303478
  Ewald energy   TEWEN  =      6221.61188061
  -Hartree energ DENC   =     -8421.76608535
  -exchange      EXHF   =         0.00000000
  -V(xc)+E(xc)   XCENC  =        25.95616450
  PAW double counting   =      1128.18327079    -1041.53528178
  entropy T*S    EENTRO =         0.00000000
  eigenvalues    EBANDS =      -486.99043034
  atomic energy  EATOM  =      2505.77835381
  Solvation  Ediel_sol  =         0.00000000
  ---------------------------------------------------
  free energy    TOTEN  =       -47.78909298 eV

  energy without entropy =      -47.78909298  energy(sigma->0) =      -47.78909298


--------------------------------------------------------------------------------------------------------




 average (electrostatic) potential at core
  the test charge radii are     1.1394  0.9587  1.1631  0.9698
  (the norm of the test charge is              1.0000)
[...]
     34      -0.1031      0.00000
     35      -0.0610      0.00000
     36       0.2848      0.00000
     37       0.5013      0.00000
     38       1.0252      0.00000
     39       1.0539      0.00000
     40       1.7086      0.00000
     41       2.2393      0.00000
     42       2.3668      0.00000
     43       2.6690      0.00000
     44       2.9549      0.00000
     45       3.6549      0.00000
     46       3.7187      0.00000
     47       4.0598      0.00000
     48       4.1783      0.00000

 k-point     5 :      -0.4000    0.2000    0.0000
  band No.  band energies     occupation 
      1     -17.4423      1.00000
      2     -16.1935      1.00000
      3     -15.9875      1.00000
      4     -15.8668      1.00000
      5     -15.4892      1.00000
      6     -15.3209      1.00000
      7     -12.1490      1.00000
      8     -10.4380      1.00000
      9      -8.4008      1.00000
     10      -7.9606      1.00000
     11      -7.6290      1.00000
     12      -7.1712      1.00000
     13      -6.9024      1.00000
     14      -6.3817      1.00000
     15      -6.1196      1.00000
     16      -6.0802      1.00000
     17      -5.8829      1.00000
     18      -5.5189      1.00000
     19      -5.4953      1.00000
     20      -5.2618      1.00000
     21      -5.1210      1.00000
     22      -4.5321      1.00000
     23      -4.3563      1.00000
     24      -4.3186      1.00000
     25      -4.0353      1.00000
     26      -2.8083      1.00000
     27      -1.6521      0.00000
     28      -1.5459      0.00000
     29      -1.3906      0.00000
     30      -0.7913      0.00000
     31      -0.6606      0.00000
     32      -0.6057      0.00000
     33      -0.3731      0.00000
     34      -0.3019      0.00000
     35       0.2145      0.00000
     36       0.2517      0.00000
     37       0.5880      0.00000
     38       0.7061      0.00000
     39       1.0954      0.00000
     40       1.7983      0.00000
     41       2.0192      0.00000
     42       2.0498      0.00000
     43       3.2031      0.00000
     44       3.4106      0.00000
     45       3.5666      0.00000
     46       3.6372      0.00000
     47       3.8473      0.00000
     48       4.2964      0.00000


--------------------------------------------------------------------------------------------------------


 soft charge-density along one line, spin component           1
         0         1         2         3         4         5         6         7         8         9
 total charge-density along one line

 soft charge-density along one line, spin component           2
         0         1         2         3         4         5         6         7         8         9
 total charge-density along one line

 pseudopotential strength for first ion, spin component:           1
 -8.756   0.085  -0.000  -0.001   0.000   0.676  -0.023   0.000
  0.085  -8.671   0.000   0.000  -0.001  -0.023   0.653  -0.000
 -0.000   0.000  -8.856   0.000   0.000   0.000  -0.000   0.703
 -0.001   0.000   0.000  -8.671  -0.085   0.000  -0.000  -0.000
  0.000  -0.001   0.000  -0.085  -8.756  -0.000   0.000  -0.000
  0.676  -0.023   0.000   0.000  -0.000   0.365   0.006  -0.000
 -0.023   0.653  -0.000  -0.000   0.000   0.006   0.370   0.000
  0.000  -0.000   0.703  -0.000  -0.000  -0.000   0.000   0.358
  0.000  -0.000  -0.000   0.653   0.023  -0.000   0.000   0.000
 -0.000   0.000  -0.000   0.023   0.676   0.000  -0.000   0.000
 -0.000  -0.000   0.001  -0.000   0.000   0.000   0.000  -0.000
  0.000   0.000  -0.000   0.000  -0.000  -0.000  -0.000   0.000
 -0.000  -0.002   0.000  -0.000   0.001  -0.000   0.000  -0.000
 -0.000  -0.000  -0.002  -0.000  -0.000   0.000   0.000   0.000
  0.001  -0.000   0.000  -0.002   0.000  -0.000   0.000  -0.000
  0.000   0.002  -0.000   0.000  -0.001   0.000  -0.000   0.000
  0.000   0.000   0.002   0.000   0.000  -0.000  -0.000  -0.000
 -0.001   0.000  -0.000   0.002  -0.000   0.000  -0.000   0.000
 pseudopotential strength for first ion, spin component:           2
 -7.256  -0.169  -0.000  -0.003  -0.000   0.252   0.044   0.000
 -0.169  -7.452   0.000   0.000  -0.003   0.044   0.304  -0.000
 -0.000   0.000  -7.113   0.000   0.000   0.000  -0.000   0.215
 -0.003   0.000   0.000  -7.452   0.169   0.001  -0.000  -0.000
 -0.000  -0.003   0.000   0.169  -7.256   0.000   0.001  -0.000
  0.252   0.044   0.000   0.001   0.000   0.481  -0.011  -0.000
  0.044   0.304  -0.000  -0.000   0.001  -0.011   0.468   0.000
  0.000  -0.000   0.215  -0.000  -0.000  -0.000   0.000   0.490
  0.001  -0.000  -0.000   0.304  -0.044  -0.000   0.000   0.000
  0.000   0.001  -0.000  -0.044   0.252  -0.000  -0.000   0.000
 -0.000  -0.000   0.005  -0.000   0.000  -0.000   0.000  -0.001
  0.000   0.000  -0.001   0.000  -0.000  -0.000  -0.000   0.000
  0.001  -0.003   0.000  -0.000   0.001  -0.000   0.000  -0.000
 -0.000  -0.000  -0.005  -0.000   0.000   0.000   0.000   0.001
  0.001  -0.000   0.000  -0.003  -0.001   0.000   0.000  -0.000
 -0.000   0.002  -0.000   0.000  -0.001   0.000  -0.000   0.000
  0.000   0.000   0.003   0.000  -0.000  -0.000  -0.000  -0.001
 -0.001   0.000  -0.000   0.002   0.000   0.000  -0.000   0.000
 total augmentation occupancy for first ion, spin component:           1
  1.005  -0.103   0.000  -0.025  -0.000   0.091   0.253  -0.000   0.012  -0.000  -0.000  -0.000   0.008  -0.000   0.013   0.000
 -0.103   0.936  -0.000  -0.000  -0.025   0.251   0.346   0.000  -0.000   0.011   0.000  -0.000   0.007   0.000  -0.005  -0.001
  0.000  -0.000   1.056  -0.000  -0.000  -0.000   0.000  -0.110   0.000   0.000  -0.007  -0.013  -0.000  -0.002   0.000   0.000
 -0.025  -0.000  -0.000   0.936   0.103   0.011   0.000   0.000   0.346  -0.251   0.000   0.000   0.005   0.000   0.007  -0.000
 -0.000  -0.025  -0.000   0.103   1.005   0.000   0.012   0.000  -0.253   0.091   0.000   0.000   0.013   0.000  -0.008  -0.000
  0.091   0.251  -0.000   0.011   0.000   0.240   0.122   0.000   0.008  -0.000   0.000  -0.000  -0.005   0.000   0.022  -0.000
  0.253   0.346   0.000   0.000   0.012   0.122   0.357   0.000  -0.000   0.008  -0.000  -0.000   0.001   0.000  -0.005  -0.000
 -0.000   0.000  -0.110   0.000   0.000   0.000   0.000   0.215   0.000  -0.000   0.046  -0.011  -0.000   0.010   0.000   0.000
  0.012  -0.000   0.000   0.346  -0.253   0.008  -0.000   0.000   0.357  -0.122   0.000   0.000   0.005  -0.000   0.001  -0.000
 -0.000   0.011   0.000  -0.251   0.091  -0.000   0.008  -0.000  -0.122   0.240  -0.000   0.000   0.022  -0.000   0.005  -0.002
 -0.000   0.000  -0.007   0.000   0.000   0.000  -0.000   0.046   0.000  -0.000   1.084  -0.215  -0.000   0.012   0.000  -0.000
 -0.000   0.000  -0.013   0.000   0.000  -0.000   0.000  -0.011   0.000   0.000  -0.215   0.088  -0.000   0.000   0.000  -0.000
  0.008   0.007  -0.000   0.005   0.013  -0.005   0.001  -0.000   0.005   0.022  -0.000   0.000   0.248  -0.000  -0.000  -0.005
 -0.000   0.000  -0.002   0.000   0.000   0.000   0.000   0.010  -0.000  -0.000   0.012   0.000  -0.000   0.263  -0.000  -0.000
  0.013  -0.005   0.000   0.007  -0.008   0.022  -0.005   0.000   0.001   0.005   0.000   0.000  -0.000  -0.000   0.248   0.000
  0.000  -0.001   0.000  -0.000  -0.000  -0.000  -0.000   0.000  -0.000  -0.002  -0.000  -0.000  -0.005   0.000   0.000   0.000
 -0.000   0.000  -0.003   0.000   0.000   0.000   0.000   0.000  -0.000  -0.000  -0.000   0.000  -0.000  -0.006   0.000   0.000
 -0.000   0.000   0.000  -0.001  -0.000  -0.002   0.000  -0.000  -0.000   0.000   0.000   0.000  -0.000   0.000  -0.005  -0.000
 total augmentation occupancy for first ion, spin component:           2
  0.648  -0.280   0.000  -0.005  -0.000  -0.173   0.074  -0.000   0.005   0.002  -0.000  -0.000   0.004  -0.000  -0.004   0.001
 -0.280   0.340  -0.000  -0.000  -0.005   0.076  -0.095   0.000   0.002   0.007  -0.000   0.000   0.001  -0.000   0.008  -0.000
  0.000  -0.000   0.888  -0.000  -0.000  -0.000   0.000  -0.259   0.000   0.000  -0.020  -0.004   0.000  -0.010  -0.000   0.000
 -0.005  -0.000  -0.000   0.340   0.280   0.007  -0.002   0.000  -0.095  -0.076   0.000   0.000  -0.008   0.000   0.001   0.000
 -0.000  -0.005  -0.000   0.280   0.648  -0.002   0.005   0.000  -0.074  -0.173   0.000   0.000  -0.004   0.000  -0.004   0.001
 -0.173   0.076  -0.000   0.007  -0.002   0.004  -0.051   0.000  -0.001  -0.000   0.000   0.000  -0.003   0.000  -0.005  -0.000
  0.074  -0.095   0.000  -0.002   0.005  -0.051  -0.046  -0.000   0.000  -0.001  -0.000   0.000  -0.001   0.000   0.001   0.000
 -0.000   0.000  -0.259   0.000   0.000   0.000  -0.000   0.071  -0.000  -0.000   0.015   0.004   0.000   0.002  -0.000  -0.000
  0.005   0.002   0.000  -0.095  -0.074  -0.001   0.000  -0.000  -0.046   0.051   0.000   0.000  -0.001  -0.000  -0.001  -0.000
  0.002   0.007   0.000  -0.076  -0.173  -0.000  -0.001  -0.000   0.051   0.004  -0.000  -0.000  -0.005  -0.000   0.003  -0.000
 -0.000   0.000  -0.020   0.000   0.000   0.000  -0.000   0.015   0.000  -0.000   0.138   0.060  -0.000   0.001  -0.000  -0.000
 -0.000  -0.000  -0.004   0.000   0.000   0.000   0.000   0.004   0.000  -0.000   0.060  -0.023  -0.000   0.001   0.000  -0.000
  0.004   0.001   0.000  -0.008  -0.004  -0.003  -0.001   0.000  -0.001  -0.005   0.000  -0.000   0.023   0.000  -0.000   0.002
 -0.000  -0.000  -0.010   0.000   0.000   0.000   0.000   0.002  -0.000  -0.000   0.001   0.001   0.000   0.019   0.000   0.000
 -0.004   0.008  -0.000   0.001  -0.004  -0.005   0.001  -0.000  -0.001   0.003   0.000   0.000  -0.000  -0.000   0.023  -0.000
  0.001  -0.000   0.000   0.000   0.001  -0.000   0.000  -0.000  -0.000  -0.000  -0.000  -0.000   0.002   0.000  -0.000  -0.000
 -0.000  -0.000  -0.002   0.000   0.000   0.000   0.000   0.001  -0.000  -0.000   0.000  -0.000   0.000   0.002  -0.000   0.000
  0.001  -0.000   0.000  -0.000  -0.001  -0.000   0.000  -0.000   0.000   0.000   0.000   0.000   0.000   0.000   0.002   0.000


------------------------ aborting loop because EDIFF is reached ----------------------------------------





 total charge     

# of ion       s       p       d       tot
------------------------------------------
    1        0.359   0.517   4.294   5.170
    2        0.359   0.517   4.293   5.169
    3        1.052   1.362   0.000   2.415
    4        1.120   1.180   0.149   2.450
    5        1.366   2.353   0.000   3.719
    6        1.361   2.348   0.000   3.709
    7        1.364   2.348   0.000   3.712
    8        1.374   2.333   0.000   3.707
    9        1.359   2.325   0.000   3.684
   10        1.370   2.328   0.000   3.698
--------------------------------------------------
tot         11.086  17.612   8.735  37.433



 magnetization (x)

# of ion       s       p       d       tot
------------------------------------------
    1        0.030   0.036   2.674   2.740
    2        0.030   0.036   2.674   2.741
    3       -0.031  -0.003   0.000  -0.035
    4        0.002   0.029  -0.000   0.031
    5        0.000  -0.058   0.000  -0.058
    6       -0.002  -0.042   0.000  -0.043
    7       -0.001  -0.053   0.000  -0.054
    8       -0.004  -0.069   0.000  -0.073
    9       -0.003  -0.063   0.000  -0.066
   10       -0.005  -0.071   0.000  -0.076
--------------------------------------------------
tot          0.017  -0.257   5.347   5.107

    CHARGE:  cpu time    1.9440: real time    1.9520
    FORLOC:  cpu time    0.0640: real time    0.0661
    FORNL :  cpu time    6.6920: real time    6.7084
    STRESS:  cpu time   20.0800: real time   20.1459
    FORCOR:  cpu time   51.4840: real time   51.8192
    FORHAR:  cpu time    0.3320: real time    0.3300
    MIXING:  cpu time    0.0400: real time    0.0401
    OFIELD:  cpu time    0.0000: real time    0.0000

  FORCE on cell =-STRESS in cart. coord.  units (eV):
  Direction    XX          YY          ZZ          XY          YZ          ZX
  --------------------------------------------------------------------------------------
  Alpha Z    30.51903    30.51903    30.51903
  Ewald    9695.32487  9695.32212-11416.58070    -0.00122    -0.00045    -0.00081
  Hartree 10035.95934 10035.95966 -9859.06193    -0.00005     0.00003     0.00006
  E(xc)    -215.23721  -215.23720  -215.00300     0.00000     0.00000     0.00001
  Local  -20635.34909-20635.34813 20323.82292     0.00082     0.00023     0.00043
  n-local   491.57159   493.37967   500.75124     0.85660     0.70658     0.69383
  augment   -53.43435   -53.43430   -58.12854     0.00001     0.00002     0.00002
  Kinetic   653.57127   646.53494   693.98804    -4.21611    -0.22619    -0.53854
  Fock        0.00000     0.00000     0.00000     0.00000     0.00000     0.00000
  -------------------------------------------------------------------------------------
  Total       0.31063     0.31063     0.30705     0.00000     0.00000    -0.00000
  in kB       0.74750     0.74750     0.73888     0.00000     0.00000    -0.00000
  external pressure =        0.74 kB  Pullay stress =        0.00 kB


 VOLUME and BASIS-vectors are now :
 -----------------------------------------------------------------------------
  energy-cutoff  :      520.00
  volume of cell :      665.79
      direct lattice vectors                 reciprocal lattice vectors
     5.987041686  0.000000030 -0.000000000     0.167027399 -0.096433307  0.000000000
     2.993520517  5.184929989 -0.000000000    -0.000000001  0.192866636 -0.000000000
    -0.000000000  0.000000000 21.447922677     0.000000000  0.000000000  0.046624562

  length of vectors
     5.987041686  5.987041346 21.447922677     0.192866625  0.192866636  0.046624562


 FORCES acting on ions
    electron-ion (+dipol)            ewald-force                    non-local-force                 convergence-correction
 -----------------------------------------------------------------------------------------------
   -.163E-03 -.837E-04 -.358E+01   0.411E-03 0.242E-03 0.415E+01   0.610E-19 -.482E-19 -.481E+00   0.143E-06 0.847E-07 -.159E-01
   0.130E-03 0.104E-03 -.460E+01   -.430E-03 -.252E-03 0.517E+01   -.688E-17 -.503E-19 -.502E+00   0.701E-07 0.294E-07 -.163E-01
   -.350E-04 -.316E-04 0.287E+03   -.274E-03 -.153E-03 -.285E+03   -.622E-16 -.210E-16 -.221E+01   -.258E-06 -.155E-06 0.806E-02
   0.426E-04 -.192E-05 -.231E+03   0.199E-03 0.111E-03 0.229E+03   0.666E-17 0.106E-16 0.222E+01   -.975E-07 -.622E-07 -.261E-01
   -.674E+01 -.873E-02 -.470E+03   0.273E+01 0.213E-01 0.473E+03   0.398E+01 -.738E-02 -.368E+01   0.984E-02 -.589E-02 -.368E-01
   0.336E+01 0.584E+01 -.470E+03   -.135E+01 -.238E+01 0.473E+03   -.200E+01 -.345E+01 -.368E+01   -.100E-01 -.558E-02 -.368E-01
   0.337E+01 -.583E+01 -.470E+03   -.138E+01 0.235E+01 0.473E+03   -.198E+01 0.345E+01 -.368E+01   0.179E-03 0.115E-01 -.368E-01
   -.115E+02 0.337E-01 0.454E+03   0.160E+02 -.323E-01 -.458E+03   -.451E+01 0.717E-02 0.369E+01   -.131E-01 -.603E-02 0.132E-01
   0.578E+01 0.994E+01 0.454E+03   -.802E+01 -.138E+02 -.458E+03   0.226E+01 0.390E+01 0.369E+01   0.131E-02 0.143E-01 0.132E-01
   0.572E+01 -.997E+01 0.454E+03   -.797E+01 0.139E+02 -.458E+03   0.225E+01 -.391E+01 0.369E+01   0.118E-01 -.830E-02 0.132E-01
 -----------------------------------------------------------------------------------------------
   -.992E-04 -.573E-04 0.106E+01   0.266E-14 -.355E-14 -.568E-13   0.000E+00 -.444E-15 -.934E+00   -.860E-07 0.203E-07 -.121E+00


 POSITION                                       TOTAL-FORCE (eV/Angst)
 -----------------------------------------------------------------------------------
      2.99352      1.72831     10.72235        -0.000000      0.000000      0.072482
      5.98704      3.45662     10.72557        -0.000000     -0.000000      0.054333
     -0.00000      0.00000      9.52812        -0.000000      0.000000     -0.002077
     -0.00000      0.00000     11.83462        -0.000000     -0.000000     -0.017831
      3.75930      0.00079     12.23920        -0.016581      0.000221      0.026337
      1.11456      1.92890     12.23920         0.008482      0.014249      0.026337
      4.10672      3.25525     12.23920         0.008099     -0.014470      0.026337
      5.15007      5.18412      9.23878        -0.030228      0.001651     -0.061972
      7.90159      3.31770      9.23878         0.016544      0.025353     -0.061972
      4.90946      1.86803      9.23878         0.013684     -0.027004     -0.061972
 -----------------------------------------------------------------------------------
    total drift:                               -0.000099     -0.000057      0.001891


--------------------------------------------------------------------------------------------------------



  FREE ENERGIE OF THE ION-ELECTRON SYSTEM (eV)
  ---------------------------------------------------
  free  energy   TOTEN  =       -54.09720993 eV

  energy  without entropy=      -54.09720993  energy(sigma->0) =      -54.09720993

 d Force = 0.7907543E-04[ 0.740E-04, 0.841E-04]  d Energy = 0.1776516E-03-0.986E-04
 d Force = 0.5015733E+00[ 0.502E+00, 0.502E+00]  d Ewald  = 0.1175132E+00 0.384E+00


--------------------------------------------------------------------------------------------------------


    POTLOK:  cpu time   51.8440: real time   52.0787


--------------------------------------------------------------------------------------------------------




--------------------------------------------------------------------------------------------------------


  
 reached required accuracy - stopping structural energy minimisation
     LOOP+:  cpu time  299.6640: real time  300.7944
    4ORBIT:  cpu time    0.0000: real time    0.0000



 total charge     

# of ion       s       p       d       tot
------------------------------------------
    1        0.359   0.517   4.294   5.170
    2        0.359   0.517   4.293   5.169
    3        1.052   1.362   0.000   2.415
    4        1.120   1.180   0.149   2.450
    5        1.366   2.353   0.000   3.719
    6        1.361   2.348   0.000   3.709
    7        1.364   2.348   0.000   3.712
    8        1.374   2.333   0.000   3.707
    9        1.359   2.325   0.000   3.684
   10        1.370   2.328   0.000   3.698
--------------------------------------------------
tot         11.086  17.612   8.735  37.433



 magnetization (x)

# of ion       s       p       d       tot
------------------------------------------
    1        0.030   0.036   2.674   2.740
    2        0.030   0.036   2.674   2.741
    3       -0.031  -0.003   0.000  -0.035
    4        0.002   0.029  -0.000   0.031
    5        0.000  -0.058   0.000  -0.058
    6       -0.002  -0.042   0.000  -0.043
    7       -0.001  -0.053   0.000  -0.054
    8       -0.004  -0.069   0.000  -0.073
    9       -0.003  -0.063   0.000  -0.066
   10       -0.005  -0.071   0.000  -0.076
--------------------------------------------------
tot          0.017  -0.257   5.347   5.107

 BZINTS: Fermi energy: -1.882606; 57.000000 electrons
         Band energy:-466.585222;  BLOECHL correction: -0.024490

 total amount of memory used by VASP MPI-rank0   131183. kBytes
=======================================================================

   base      :      30000. kBytes
   nonlr-proj:       8698. kBytes
   fftplans  :      11247. kBytes
   grid      :      68332. kBytes
   one-center:        311. kBytes
   wavefun   :      12595. kBytes

  
  
 General timing and accounting informations for this job:
 ========================================================
  
                  Total CPU time used (sec):     7841.712
                            User time (sec):     7656.720
                          System time (sec):      184.992
                         Elapsed time (sec):     7883.538
  
                   Maximum memory used (kb):      381020.
                   Average memory used (kb):           0.
  
                          Minor page faults:      8779620
                          Major page faults:            8
                 Voluntary context switches:         1075
