PROCAR lm decomposed
# of k-points:    5         # of bands:   48         # of ions:   10

 k-point     1 :    0.00000000 0.00000000 0.00000000     weight = 0.04000000

band     1 # energy  -17.87251948 # occ.  1.00000000

ion      s     py     pz     px    dxy    dyz    dz2    dxz  x2-y2    tot
    1  0.015  0.000  0.000  0.000  0.000  0.000  0.000  0.000  0.000  0.015
    2  0.015  0.000  0.000  0.000  0.000  0.000  0.000  0.000  0.000  0.015
    3  0.152  0.000  0.000  0.000  0.000  0.000  0.000  0.000  0.000  0.153
    4  0.044  0.000  0.002  0.000  0.000  0.000  0.000  0.000  0.000  0.047
    5  0.026  0.000  0.001  0.000  0.000  0.000  0.000  0.000  0.000  0.027
    6  0.026  0.000  0.001  0.000  0.000  0.000  0.000  0.000  0.000  0.027
    7  0.026  0.000  0.001  0.000  0.000  0.000  0.000  0.000  0.000  0.027
    8  0.102  0.000  0.001  0.003  0.000  0.000  0.000  0.000  0.000  0.106
    9  0.102  0.003  0.001  0.001  0.000  0.000  0.000  0.000  0.000  0.106
   10  0.102  0.003  0.001  0.001  0.000  0.000  0.000  0.000  0.000  0.106
tot    0.610  0.006  0.008  0.006  0.000  0.000  0.000  0.000  0.000  0.629

band     2 # energy  -16.44620492 # occ.  1.00000000

ion      s     py     pz     px    dxy    dyz    dz2    dxz  x2-y2    tot
    1  0.003  0.000  0.009  0.000  0.000  0.000  0.000  0.000  0.000  0.012
    2  0.003  0.000  0.009  0.000  0.000  0.000  0.000  0.000  0.000  0.012
    3  0.029  0.000  0.002  0.000  0.000  0.000  0.000  0.000  0.000  0.031
    4  0.083  0.000  0.002  0.000  0.000  0.000  0.002  0.000  0.000  0.088
    5  0.142  0.000  0.000  0.001  0.000  0.000  0.000  0.000  0.000  0.144
    6  0.142  0.001  0.000  0.000  0.000  0.000  0.000  0.000  0.000  0.144
    7  0.142  0.001  0.000  0.000  0.000  0.000  0.000  0.000  0.000  0.144
    8  0.033  0.000  0.000  0.001  0.000  0.000  0.000  0.000  0.000  0.035
    9  0.033  0.001  0.000  0.000  0.000  0.000  0.000  0.000  0.000  0.035
   10  0.033  0.001  0.000  0.000  0.000  0.000  0.000  0.000  0.000  0.035
tot    0.646  0.004  0.022  0.004  0.000  0.000  0.002  0.000  0.000  0.678

band     3 # energy  -15.43265166 # occ.  1.00000000

ion      s     py     pz     px    dxy    dyz    dz2    dxz  x2-y2    tot
    1  0.000  0.004  0.000  0.001  0.003  0.005  0.000  0.001  0.001  0.015
    2  0.000  0.004  0.000  0.002  0.002  0.005  0.000  0.001  0.001  0.015
    3  0.000  0.000  0.000  0.033  0.000  0.000  0.000  0.000  0.000  0.033
    4  0.000  0.000  0.000  0.001  0.000  0.000  0.000  0.000  0.000  0.001
    5  0.002  0.000  0.000  0.000  0.000  0.000  0.000  0.000  0.000  0.003
    6  0.001  0.000  0.000  0.000  0.000  0.000  0.000  0.000  0.000  0.001
    7  0.000  0.000  0.000  0.000  0.000  0.000  0.000  0.000  0.000  0.001
    8  0.423  0.000  0.002  0.004  0.000  0.000  0.000  0.000  0.000  0.429
    9  0.128  0.001  0.001  0.000  0.000  0.000  0.000  0.000  0.000  0.130
   10  0.085  0.001  0.000  0.000  0.000  0.000  0.000  0.000  0.000  0.086
tot    0.640  0.010  0.003  0.042  0.005  0.010  0.000  0.002  0.002  0.714

band     4 # energy  -15.43260910 # occ.  1.00000000

ion      s     py     pz     px    dxy    dyz    dz2    dxz  x2-y2    tot
    1  0.000  0.001  0.000  0.004  0.001  0.001  0.000  0.005  0.003  0.015
    2  0.000  0.002  0.000  0.004  0.001  0.001  0.000  0.005  0.002  0.015
    3  0.000  0.033  0.000  0.000  0.000  0.000  0.000  0.000  0.000  0.033
    4  0.000  0.001  0.000  0.000  0.000  0.000  0.000  0.000  0.000  0.001
    5  0.000  0.000  0.000  0.000  0.000  0.000  0.000  0.000  0.000  0.000
    6  0.002  0.000  0.000  0.000  0.000  0.000  0.000  0.000  0.000  0.002
    7  0.002  0.000  0.000  0.000  0.000  0.000  0.000  0.000  0.000  0.002
    8  0.001  0.000  0.000  0.000  0.000  0.000  0.000  0.000  0.000  0.002
    9  0.296  0.002  0.001  0.001  0.000  0.000  0.000  0.000  0.000  0.300
   10  0.339  0.003  0.002  0.001  0.000  0.000  0.000  0.000  0.000  0.344
tot    0.640  0.042  0.003  0.010  0.002  0.002  0.000  0.010  0.005  0.714

band     5 # energy  -14.98135741 # occ.  1.00000000

ion      s     py     pz     px    dxy    dyz    dz2    dxz  x2-y2    tot
    1  0.000  0.006  0.000  0.002  0.001  0.004  0.000  0.002  0.002  0.017
    2  0.000  0.007  0.000  0.000  0.002  0.005  0.000  0.001  0.001  0.017
    3  0.000  0.000  0.000  0.000  0.000  0.000  0.000  0.000  0.000  0.000
    4  0.000  0.001  0.000  0.028  0.000  0.000  0.000  0.000  0.004  0.033
    5  0.429  0.000  0.002  0.002  0.000  0.000  0.000  0.000  0.000  0.433
    6  0.171  0.001  0.001  0.000  0.000  0.000  0.000  0.000  0.000  0.173
    7  0.058  0.000  0.000  0.000  0.000  0.000  0.000  0.000  0.000  0.059
    8  0.003  0.000  0.000  0.000  0.000  0.000  0.000  0.000  0.000  0.004
    9  0.001  0.000  0.000  0.000  0.000  0.000  0.000  0.000  0.000  0.001
   10  0.000  0.000  0.000  0.000  0.000  0.000  0.000  0.000  0.000  0.000
tot    0.663  0.014  0.003  0.033  0.003  0.009  0.000  0.003  0.007  0.737

band     6 # energy  -14.98132033 # occ.  1.00000000

ion      s     py     pz     px    dxy    dyz    dz2    dxz  x2-y2    tot
    1  0.000  0.002  0.000  0.006  0.002  0.002  0.000  0.004  0.001  0.017
    2  0.000  0.000  0.000  0.007  0.001  0.001  0.000  0.005  0.002  0.017
    3  0.000  0.000  0.000  0.000  0.000  0.000  0.000  0.000  0.000  0.000
    4  0.000  0.028  0.000  0.001  0.004  0.000  0.000  0.000  0.000  0.033
    5  0.010  0.000  0.000  0.000  0.000  0.000  0.000  0.000  0.000  0.010
    6  0.268  0.001  0.001  0.000  0.000  0.000  0.000  0.000  0.000  0.270
    7  0.380  0.001  0.002  0.000  0.000  0.000  0.000  0.000  0.000  0.384
    8  0.000  0.000  0.000  0.000  0.000  0.000  0.000  0.000  0.000  0.000
    9  0.002  0.000  0.000  0.000  0.000  0.000  0.000  0.000  0.000  0.002
   10  0.003  0.000  0.000  0.000  0.000  0.000  0.000  0.000  0.000  0.003
tot    0.663  0.033  0.003  0.014  0.007  0.003  0.000  0.009  0.003  0.737

band     7 # energy  -12.78909622 # occ.  1.00000000

ion      s     py     pz     px    dxy    dyz    dz2    dxz  x2-y2    tot
    1  0.020  0.000  0.002  0.000  0.000  0.000  0.001  0.000  0.000  0.022
    2  0.020  0.000  0.002  0.000  0.000  0.000  0.001  0.000  0.000  0.022
    3  0.226  0.000  0.008  0.000  0.000  0.000  0.000  0.000  0.000  0.235
    4  0.095  0.000  0.014  0.000  0.000  0.000  0.002  0.000  0.000  0.111
    5  0.009  0.000  0.000  0.005  0.000  0.000  0.000  0.000  0.000  0.014
    6  0.009  0.003  0.000  0.001  0.000  0.000  0.000  0.000  0.000  0.014
    7  0.009  0.003  0.000  0.001  0.000  0.000  0.000  0.000  0.000  0.014
    8  0.060  0.000  0.000  0.019  0.000  0.000  0.000  0.000  0.000  0.079
    9  0.060  0.014  0.000  0.005  0.000  0.000  0.000  0.000  0.000  0.079
   10  0.060  0.014  0.000  0.005  0.000  0.000  0.000  0.000  0.000  0.079
tot    0.568  0.035  0.025  0.035  0.000  0.000  0.004  0.000  0.000  0.668

band     8 # energy  -10.31080792 # occ.  1.00000000

ion      s     py     pz     px    dxy    dyz    dz2    dxz  x2-y2    tot
    1  0.000  0.000  0.011  0.000  0.000  0.000  0.001  0.000  0.000  0.012
    2  0.000  0.000  0.011  0.000  0.000  0.000  0.001  0.000  0.000  0.012
    3  0.075  0.000  0.024  0.000  0.000  0.000  0.000  0.000  0.000  0.100
    4  0.304  0.000  0.000  0.000  0.000  0.000  0.000  0.000  0.000  0.304
    5  0.027  0.000  0.001  0.032  0.000  0.000  0.000  0.000  0.000  0.060
    6  0.027  0.024  0.001  0.008  0.000  0.000  0.000  0.000  0.000  0.060
    7  0.027  0.024  0.001  0.008  0.000  0.000  0.000  0.000  0.000  0.060
    8  0.008  0.000  0.001  0.015  0.000  0.000  0.000  0.000  0.000  0.024
    9  0.008  0.011  0.001  0.004  0.000  0.000  0.000  0.000  0.000  0.024
   10  0.008  0.011  0.001  0.004  0.000  0.000  0.000  0.000  0.000  0.024
tot    0.486  0.070  0.051  0.070  0.000  0.000  0.002  0.000  0.000  0.680

band     9 # energy   -8.65492194 # occ.  1.00000000

ion      s     py     pz     px    dxy    dyz    dz2    dxz  x2-y2    tot
    1  0.000  0.000  0.000  0.007  0.000  0.011  0.000  0.024  0.003  0.046
    2  0.000  0.007  0.000  0.000  0.003  0.021  0.000  0.014  0.000  0.046
    3  0.000  0.060  0.000  0.052  0.000  0.000  0.000  0.000  0.000  0.112
    4  0.000  0.007  0.000  0.006  0.000  0.000  0.000  0.000  0.000  0.014
    5  0.002  0.002  0.001  0.005  0.000  0.000  0.000  0.000  0.000  0.011
    6  0.004  0.009  0.003  0.001  0.000  0.000  0.000  0.000  0.000  0.018
    7  0.000  0.000  0.000  0.004  0.000  0.000  0.000  0.000  0.000  0.005
    8  0.008  0.018  0.000  0.064  0.000  0.000  0.000  0.000  0.000  0.091
    9  0.017  0.112  0.000  0.021  0.000  0.000  0.000  0.000  0.000  0.151
   10  0.002  0.000  0.000  0.043  0.000  0.000  0.000  0.000  0.000  0.045
tot    0.034  0.216  0.005  0.205  0.003  0.033  0.000  0.039  0.003  0.539

band    10 # energy   -8.65489862 # occ.  1.00000000

ion      s     py     pz     px    dxy    dyz    dz2    dxz  x2-y2    tot
    1  0.000  0.007  0.000  0.000  0.003  0.024  0.000  0.011  0.000  0.046
    2  0.000  0.000  0.000  0.007  0.000  0.014  0.000  0.021  0.003  0.046
    3  0.000  0.052  0.000  0.060  0.000  0.000  0.000  0.000  0.000  0.112
    4  0.000  0.006  0.000  0.007  0.000  0.000  0.000  0.000  0.000  0.014
    5  0.003  0.002  0.002  0.006  0.000  0.000  0.000  0.000  0.000  0.012
    6  0.000  0.000  0.000  0.004  0.000  0.000  0.000  0.000  0.000  0.005
    7  0.004  0.009  0.003  0.001  0.000  0.000  0.000  0.000  0.000  0.017
    8  0.010  0.016  0.000  0.075  0.000  0.000  0.000  0.000  0.000  0.100
    9  0.001  0.000  0.000  0.039  0.000  0.000  0.000  0.000  0.000  0.040
   10  0.016  0.112  0.000  0.017  0.000  0.000  0.000  0.000  0.000  0.146
tot    0.034  0.205  0.005  0.216  0.003  0.039  0.000  0.033  0.003  0.539

band    11 # energy   -8.19044495 # occ.  1.00000000

ion      s     py     pz     px    dxy    dyz    dz2    dxz  x2-y2    tot
    1  0.041  0.000  0.000  0.000  0.000  0.000  0.016  0.000  0.000  0.057
    2  0.041  0.000  0.000  0.000  0.000  0.000  0.016  0.000  0.000  0.057
    3  0.000  0.000  0.062  0.000  0.000  0.000  0.000  0.000  0.000  0.062
    4  0.014  0.000  0.068  0.000  0.000  0.000  0.002  0.000  0.000  0.084
    5  0.001  0.000  0.028  0.013  0.000  0.000  0.000  0.000  0.000  0.043
    6  0.001  0.010  0.028  0.003  0.000  0.000  0.000  0.000  0.000  0.043
    7  0.001  0.010  0.028  0.003  0.000  0.000  0.000  0.000  0.000  0.043
    8  0.004  0.000  0.039  0.003  0.000  0.000  0.000  0.000  0.000  0.046
    9  0.004  0.003  0.039  0.001  0.000  0.000  0.000  0.000  0.000  0.046
   10  0.004  0.003  0.039  0.001  0.000  0.000  0.000  0.000  0.000  0.046
tot    0.111  0.025  0.329  0.025  0.000  0.000  0.033  0.000  0.000  0.524

band    12 # energy   -7.85403121 # occ.  1.00000000

ion      s     py     pz     px    dxy    dyz    dz2    dxz  x2-y2    tot
    1  0.000  0.020  0.000  0.001  0.008  0.018  0.000  0.002  0.005  0.053
    2  0.000  0.010  0.000  0.010  0.000  0.002  0.000  0.018  0.013  0.053
    3  0.000  0.002  0.000  0.007  0.000  0.000  0.000  0.000  0.000  0.010
    4  0.000  0.021  0.000  0.075  0.000  0.000  0.000  0.001  0.000  0.096
    5  0.002  0.009  0.001  0.114  0.000  0.000  0.000  0.000  0.000  0.127
    6  0.002  0.111  0.001  0.005  0.000  0.000  0.000  0.000  0.000  0.119
    7  0.000  0.013  0.000  0.028  0.000  0.000  0.000  0.000  0.000  0.040
    8  0.000  0.001  0.009  0.015  0.000  0.000  0.000  0.000  0.000  0.025
    9  0.000  0.014  0.008  0.001  0.000  0.000  0.000  0.000  0.000  0.023
   10  0.000  0.001  0.000  0.002  0.000  0.000  0.000  0.000  0.000  0.003
tot    0.005  0.200  0.020  0.258  0.008  0.020  0.000  0.020  0.018  0.549

band    13 # energy   -7.85401072 # occ.  1.00000000

ion      s     py     pz     px    dxy    dyz    dz2    dxz  x2-y2    tot
    1  0.000  0.001  0.000  0.020  0.005  0.002  0.000  0.018  0.008  0.053
    2  0.000  0.010  0.000  0.010  0.013  0.018  0.000  0.002  0.000  0.053
    3  0.000  0.007  0.000  0.002  0.000  0.000  0.000  0.000  0.000  0.010
    4  0.000  0.075  0.000  0.021  0.000  0.001  0.000  0.000  0.000  0.096
    5  0.001  0.032  0.000  0.032  0.000  0.000  0.000  0.000  0.000  0.064
    6  0.001  0.008  0.000  0.062  0.000  0.000  0.000  0.000  0.000  0.072
    7  0.003  0.107  0.002  0.039  0.000  0.000  0.000  0.000  0.000  0.151
    8  0.000  0.002  0.002  0.004  0.000  0.000  0.000  0.000  0.000  0.009
    9  0.000  0.002  0.003  0.006  0.000  0.000  0.000  0.000  0.000  0.011
   10  0.000  0.014  0.011  0.005  0.000  0.000  0.000  0.000  0.000  0.031
tot    0.005  0.258  0.020  0.200  0.018  0.020  0.000  0.020  0.008  0.549

band    14 # energy   -7.63911426 # occ.  1.00000000

ion      s     py     pz     px    dxy    dyz    dz2    dxz  x2-y2    tot
    1  0.084  0.000  0.000  0.000  0.000  0.000  0.029  0.000  0.000  0.113
    2  0.084  0.000  0.000  0.000  0.000  0.000  0.029  0.000  0.000  0.113
    3  0.000  0.000  0.000  0.000  0.000  0.000  0.000  0.000  0.000  0.000
    4  0.000  0.000  0.000  0.000  0.000  0.000  0.000  0.000  0.000  0.000
    5  0.000  0.060  0.000  0.000  0.000  0.000  0.000  0.000  0.000  0.060
    6  0.000  0.015  0.000  0.045  0.000  0.000  0.000  0.000  0.000  0.060
    7  0.000  0.015  0.000  0.045  0.000  0.000  0.000  0.000  0.000  0.060
    8  0.000  0.058  0.000  0.000  0.000  0.000  0.000  0.000  0.000  0.058
    9  0.000  0.015  0.000  0.044  0.000  0.000  0.000  0.000  0.000  0.058
   10  0.000  0.015  0.000  0.044  0.000  0.000  0.000  0.000  0.000  0.058
tot    0.168  0.178  0.000  0.178  0.000  0.000  0.058  0.000  0.000  0.582

band    15 # energy   -6.35605887 # occ.  1.00000000

ion      s     py     pz     px    dxy    dyz    dz2    dxz  x2-y2    tot
    1  0.000  0.000  0.056  0.000  0.000  0.000  0.000  0.000  0.000  0.056
    2  0.000  0.000  0.056  0.000  0.000  0.000  0.000  0.000  0.000  0.056
    3  0.000  0.000  0.000  0.000  0.000  0.000  0.000  0.000  0.000  0.000
    4  0.000  0.000  0.000  0.000  0.000  0.000  0.000  0.000  0.000  0.000
    5  0.000  0.072  0.000  0.000  0.000  0.000  0.000  0.000  0.000  0.072
    6  0.000  0.018  0.000  0.054  0.000  0.000  0.000  0.000  0.000  0.072
    7  0.000  0.018  0.000  0.054  0.000  0.000  0.000  0.000  0.000  0.072
    8  0.000  0.076  0.000  0.000  0.000  0.000  0.000  0.000  0.000  0.076
    9  0.000  0.019  0.000  0.057  0.000  0.000  0.000  0.000  0.000  0.076
   10  0.000  0.019  0.000  0.057  0.000  0.000  0.000  0.000  0.000  0.076
tot    0.000  0.221  0.111  0.221  0.000  0.000  0.000  0.000  0.000  0.553

band    16 # energy   -5.83086555 # occ.  1.00000000

ion      s     py     pz     px    dxy    dyz    dz2    dxz  x2-y2    tot
    1  0.000  0.001  0.000  0.000  0.000  0.001  0.000  0.101  0.109  0.211
    2  0.000  0.001  0.000  0.000  0.008  0.004  0.000  0.098  0.101  0.211
    3  0.000  0.000  0.000  0.000  0.000  0.000  0.000  0.000  0.000  0.000
    4  0.000  0.000  0.000  0.000  0.000  0.000  0.000  0.000  0.001  0.001
    5  0.001  0.001  0.022  0.002  0.000  0.000  0.000  0.000  0.000  0.026
    6  0.000  0.009  0.003  0.037  0.000  0.000  0.000  0.000  0.000  0.049
    7  0.000  0.005  0.008  0.029  0.000  0.000  0.000  0.000  0.000  0.043
    8  0.002  0.001  0.051  0.009  0.000  0.000  0.000  0.000  0.000  0.062
    9  0.000  0.009  0.007  0.054  0.000  0.000  0.000  0.000  0.000  0.071
   10  0.001  0.003  0.019  0.045  0.000  0.000  0.000  0.000  0.000  0.068
tot    0.004  0.029  0.111  0.178  0.008  0.004  0.000  0.198  0.212  0.744

band    17 # energy   -5.83085264 # occ.  1.00000000

ion      s     py     pz     px    dxy    dyz    dz2    dxz  x2-y2    tot
    1  0.000  0.000  0.000  0.001  0.109  0.101  0.000  0.001  0.000  0.211
    2  0.000  0.000  0.000  0.001  0.101  0.098  0.000  0.004  0.008  0.211
    3  0.000  0.000  0.000  0.000  0.000  0.000  0.000  0.000  0.000  0.000
    4  0.000  0.000  0.000  0.000  0.001  0.000  0.000  0.000  0.000  0.001
    5  0.000  0.052  0.000  0.000  0.000  0.000  0.000  0.000  0.000  0.053
    6  0.001  0.006  0.019  0.003  0.000  0.000  0.000  0.000  0.000  0.029
    7  0.001  0.010  0.014  0.011  0.000  0.000  0.000  0.000  0.000  0.036
    8  0.000  0.071  0.001  0.000  0.000  0.000  0.000  0.000  0.000  0.072
    9  0.001  0.016  0.044  0.002  0.000  0.000  0.000  0.000  0.000  0.064
   10  0.001  0.022  0.032  0.011  0.000  0.000  0.000  0.000  0.000  0.066
tot    0.004  0.178  0.111  0.029  0.212  0.198  0.000  0.004  0.008  0.744

band    18 # energy   -5.49528135 # occ.  1.00000000

ion      s     py     pz     px    dxy    dyz    dz2    dxz  x2-y2    tot
    1  0.000  0.000  0.000  0.002  0.068  0.057  0.000  0.009  0.019  0.155
    2  0.000  0.000  0.000  0.002  0.087  0.064  0.000  0.002  0.000  0.155
    3  0.000  0.000  0.000  0.000  0.000  0.000  0.000  0.000  0.000  0.000
    4  0.000  0.000  0.000  0.000  0.000  0.000  0.000  0.004  0.000  0.005
    5  0.006  0.000  0.106  0.005  0.000  0.000  0.000  0.000  0.000  0.117
    6  0.003  0.003  0.059  0.000  0.000  0.000  0.000  0.000  0.000  0.065
    7  0.000  0.001  0.007  0.000  0.000  0.000  0.000  0.000  0.000  0.009
    8  0.005  0.001  0.095  0.000  0.000  0.000  0.000  0.000  0.000  0.101
    9  0.003  0.002  0.053  0.002  0.000  0.000  0.000  0.000  0.000  0.060
   10  0.000  0.002  0.006  0.005  0.000  0.000  0.000  0.000  0.000  0.014
tot    0.018  0.010  0.325  0.018  0.154  0.121  0.000  0.015  0.020  0.681

band    19 # energy   -5.49525979 # occ.  1.00000000

ion      s     py     pz     px    dxy    dyz    dz2    dxz  x2-y2    tot
    1  0.000  0.002  0.000  0.000  0.019  0.009  0.000  0.057  0.068  0.155
    2  0.000  0.002  0.000  0.000  0.000  0.002  0.000  0.064  0.087  0.155
    3  0.000  0.000  0.000  0.000  0.000  0.000  0.000  0.000  0.000  0.000
    4  0.000  0.000  0.000  0.000  0.000  0.004  0.000  0.000  0.000  0.005
    5  0.000  0.001  0.008  0.000  0.000  0.000  0.000  0.000  0.000  0.011
    6  0.003  0.001  0.056  0.002  0.000  0.000  0.000  0.000  0.000  0.062
    7  0.006  0.003  0.107  0.002  0.000  0.000  0.000  0.000  0.000  0.119
    8  0.000  0.007  0.008  0.000  0.000  0.000  0.000  0.000  0.000  0.015
    9  0.003  0.000  0.050  0.004  0.000  0.000  0.000  0.000  0.000  0.057
   10  0.005  0.000  0.096  0.001  0.000  0.000  0.000  0.000  0.000  0.102
tot    0.018  0.018  0.325  0.010  0.020  0.015  0.000  0.121  0.154  0.681

band    20 # energy   -5.18650783 # occ.  1.00000000

ion      s     py     pz     px    dxy    dyz    dz2    dxz  x2-y2    tot
    1  0.004  0.000  0.003  0.000  0.000  0.000  0.107  0.000  0.000  0.114
    2  0.004  0.000  0.003  0.000  0.000  0.000  0.108  0.000  0.000  0.114
    3  0.004  0.000  0.115  0.000  0.000  0.000  0.000  0.000  0.000  0.119
    4  0.000  0.000  0.036  0.000  0.000  0.000  0.012  0.000  0.000  0.048
    5  0.000  0.000  0.053  0.010  0.000  0.000  0.000  0.000  0.000  0.064
    6  0.000  0.008  0.053  0.003  0.000  0.000  0.000  0.000  0.000  0.064
    7  0.000  0.008  0.053  0.003  0.000  0.000  0.000  0.000  0.000  0.064
    8  0.000  0.000  0.001  0.009  0.000  0.000  0.000  0.000  0.000  0.011
    9  0.000  0.007  0.001  0.002  0.000  0.000  0.000  0.000  0.000  0.011
   10  0.000  0.007  0.001  0.002  0.000  0.000  0.000  0.000  0.000  0.011
tot    0.012  0.030  0.320  0.030  0.000  0.000  0.227  0.000  0.000  0.618

band    21 # energy   -4.78657551 # occ.  1.00000000

ion      s     py     pz     px    dxy    dyz    dz2    dxz  x2-y2    tot
    1  0.000  0.017  0.000  0.003  0.003  0.000  0.000  0.021  0.000  0.044
    2  0.000  0.019  0.000  0.000  0.003  0.002  0.000  0.019  0.000  0.044
    3  0.000  0.000  0.000  0.022  0.000  0.000  0.000  0.000  0.000  0.023
    4  0.000  0.000  0.000  0.010  0.000  0.000  0.000  0.000  0.003  0.013
    5  0.005  0.000  0.109  0.018  0.000  0.000  0.000  0.000  0.000  0.132
    6  0.002  0.002  0.039  0.008  0.000  0.000  0.000  0.000  0.000  0.051
    7  0.001  0.000  0.017  0.006  0.000  0.000  0.000  0.000  0.000  0.025
    8  0.008  0.001  0.092  0.035  0.000  0.000  0.000  0.000  0.000  0.137
    9  0.003  0.000  0.033  0.042  0.000  0.000  0.000  0.000  0.000  0.079
   10  0.001  0.001  0.015  0.043  0.000  0.000  0.000  0.000  0.000  0.060
tot    0.021  0.040  0.306  0.188  0.006  0.002  0.000  0.041  0.003  0.606

band    22 # energy   -4.78656170 # occ.  1.00000000

ion      s     py     pz     px    dxy    dyz    dz2    dxz  x2-y2    tot
    1  0.000  0.003  0.000  0.017  0.000  0.021  0.000  0.000  0.003  0.044
    2  0.000  0.000  0.000  0.019  0.000  0.019  0.000  0.002  0.003  0.044
    3  0.000  0.022  0.000  0.000  0.000  0.000  0.000  0.000  0.000  0.023
    4  0.000  0.010  0.000  0.000  0.003  0.000  0.000  0.000  0.000  0.013
    5  0.000  0.004  0.002  0.000  0.000  0.000  0.000  0.000  0.000  0.006
    6  0.003  0.013  0.071  0.000  0.000  0.000  0.000  0.000  0.000  0.087
    7  0.004  0.015  0.093  0.001  0.000  0.000  0.000  0.000  0.000  0.113
    8  0.000  0.045  0.001  0.000  0.000  0.000  0.000  0.000  0.000  0.047
    9  0.006  0.038  0.060  0.001  0.000  0.000  0.000  0.000  0.000  0.105
   10  0.007  0.037  0.079  0.000  0.000  0.000  0.000  0.000  0.000  0.124
tot    0.021  0.188  0.306  0.040  0.003  0.041  0.000  0.002  0.006  0.606

band    23 # energy   -4.74704275 # occ.  1.00000000

ion      s     py     pz     px    dxy    dyz    dz2    dxz  x2-y2    tot
    1  0.000  0.000  0.009  0.000  0.000  0.000  0.053  0.000  0.000  0.061
    2  0.000  0.000  0.009  0.000  0.000  0.000  0.051  0.000  0.000  0.060
    3  0.000  0.000  0.004  0.000  0.000  0.000  0.000  0.000  0.000  0.004
    4  0.006  0.000  0.056  0.000  0.000  0.000  0.000  0.000  0.000  0.063
    5  0.000  0.000  0.042  0.004  0.000  0.000  0.000  0.000  0.000  0.047
    6  0.000  0.003  0.042  0.001  0.000  0.000  0.000  0.000  0.000  0.047
    7  0.000  0.003  0.042  0.001  0.000  0.000  0.000  0.000  0.000  0.047
    8  0.001  0.000  0.075  0.005  0.000  0.000  0.000  0.000  0.000  0.080
    9  0.001  0.004  0.075  0.001  0.000  0.000  0.000  0.000  0.000  0.080
   10  0.001  0.004  0.075  0.001  0.000  0.000  0.000  0.000  0.000  0.080
tot    0.008  0.014  0.428  0.014  0.000  0.000  0.104  0.000  0.000  0.569

band    24 # energy   -3.74573490 # occ.  1.00000000

ion      s     py     pz     px    dxy    dyz    dz2    dxz  x2-y2    tot
    1  0.000  0.001  0.000  0.015  0.069  0.054  0.000  0.000  0.012  0.151
    2  0.000  0.009  0.000  0.006  0.001  0.015  0.000  0.038  0.080  0.149
    3  0.000  0.005  0.000  0.015  0.000  0.000  0.000  0.000  0.000  0.020
    4  0.000  0.004  0.000  0.012  0.002  0.000  0.000  0.000  0.006  0.025
    5  0.003  0.027  0.005  0.039  0.000  0.000  0.000  0.000  0.000  0.074
    6  0.000  0.027  0.000  0.076  0.000  0.000  0.000  0.000  0.000  0.103
    7  0.003  0.009  0.005  0.056  0.000  0.000  0.000  0.000  0.000  0.073
    8  0.002  0.014  0.007  0.017  0.000  0.000  0.000  0.000  0.000  0.040
    9  0.000  0.014  0.000  0.041  0.000  0.000  0.000  0.000  0.000  0.055
   10  0.003  0.003  0.007  0.027  0.000  0.000  0.000  0.000  0.000  0.040
tot    0.011  0.114  0.023  0.304  0.072  0.069  0.000  0.039  0.098  0.731

band    25 # energy   -3.74571290 # occ.  1.00000000

ion      s     py     pz     px    dxy    dyz    dz2    dxz  x2-y2    tot
    1  0.000  0.015  0.000  0.001  0.012  0.000  0.000  0.054  0.069  0.151
    2  0.000  0.006  0.000  0.009  0.080  0.038  0.000  0.015  0.001  0.149
    3  0.000  0.015  0.000  0.005  0.000  0.000  0.000  0.000  0.000  0.020
    4  0.000  0.012  0.000  0.004  0.006  0.000  0.000  0.000  0.002  0.025
    5  0.001  0.076  0.002  0.014  0.000  0.000  0.000  0.000  0.000  0.093
    6  0.004  0.039  0.006  0.014  0.000  0.000  0.000  0.000  0.000  0.064
    7  0.001  0.056  0.001  0.035  0.000  0.000  0.000  0.000  0.000  0.094
    8  0.001  0.041  0.002  0.006  0.000  0.000  0.000  0.000  0.000  0.050
    9  0.003  0.017  0.009  0.006  0.000  0.000  0.000  0.000  0.000  0.035
   10  0.001  0.028  0.002  0.020  0.000  0.000  0.000  0.000  0.000  0.050
tot    0.011  0.304  0.023  0.114  0.098  0.039  0.000  0.069  0.072  0.731

band    26 # energy   -3.61491271 # occ.  1.00000000

ion      s     py     pz     px    dxy    dyz    dz2    dxz  x2-y2    tot
    1  0.000  0.003  0.000  0.002  0.014  0.016  0.000  0.169  0.146  0.351
    2  0.000  0.001  0.000  0.005  0.018  0.021  0.000  0.165  0.141  0.351
    3  0.000  0.000  0.000  0.002  0.000  0.000  0.000  0.000  0.000  0.002
    4  0.000  0.002  0.000  0.015  0.000  0.000  0.000  0.001  0.001  0.019
    5  0.000  0.002  0.005  0.021  0.000  0.000  0.000  0.000  0.000  0.029
    6  0.000  0.001  0.000  0.017  0.000  0.000  0.000  0.000  0.000  0.018
    7  0.000  0.003  0.003  0.018  0.000  0.000  0.000  0.000  0.000  0.025
    8  0.000  0.003  0.001  0.003  0.000  0.000  0.000  0.000  0.000  0.007
    9  0.000  0.005  0.000  0.022  0.000  0.000  0.000  0.000  0.000  0.027
   10  0.000  0.000  0.000  0.014  0.000  0.000  0.000  0.000  0.000  0.015
tot    0.001  0.020  0.010  0.120  0.033  0.038  0.000  0.335  0.288  0.844

band    27 # energy   -3.61490617 # occ.  1.00000000

ion      s     py     pz     px    dxy    dyz    dz2    dxz  x2-y2    tot
    1  0.000  0.002  0.000  0.003  0.146  0.169  0.000  0.016  0.014  0.351
    2  0.000  0.005  0.000  0.001  0.141  0.165  0.000  0.021  0.018  0.351
    3  0.000  0.002  0.000  0.000  0.000  0.000  0.000  0.000  0.000  0.002
    4  0.000  0.015  0.000  0.002  0.001  0.001  0.000  0.000  0.000  0.019
    5  0.000  0.016  0.001  0.002  0.000  0.000  0.000  0.000  0.000  0.019
    6  0.000  0.021  0.006  0.002  0.000  0.000  0.000  0.000  0.000  0.030
    7  0.000  0.019  0.003  0.001  0.000  0.000  0.000  0.000  0.000  0.023
    8  0.000  0.026  0.000  0.000  0.000  0.000  0.000  0.000  0.000  0.026
    9  0.000  0.005  0.001  0.000  0.000  0.000  0.000  0.000  0.000  0.006
   10  0.000  0.009  0.000  0.008  0.000  0.000  0.000  0.000  0.000  0.017
tot    0.001  0.120  0.010  0.020  0.288  0.335  0.000  0.038  0.033  0.844

band    28 # energy   -3.36351324 # occ.  1.00000000

ion      s     py     pz     px    dxy    dyz    dz2    dxz  x2-y2    tot
    1  0.014  0.000  0.000  0.000  0.000  0.000  0.435  0.000  0.000  0.449
    2  0.014  0.000  0.000  0.000  0.000  0.000  0.436  0.000  0.000  0.450
    3  0.000  0.000  0.000  0.000  0.000  0.000  0.000  0.000  0.000  0.000
    4  0.000  0.000  0.000  0.000  0.000  0.000  0.000  0.000  0.000  0.000
    5  0.000  0.004  0.000  0.000  0.000  0.000  0.000  0.000  0.000  0.004
    6  0.000  0.001  0.000  0.003  0.000  0.000  0.000  0.000  0.000  0.004
    7  0.000  0.001  0.000  0.003  0.000  0.000  0.000  0.000  0.000  0.004
    8  0.000  0.003  0.000  0.000  0.000  0.000  0.000  0.000  0.000  0.003
    9  0.000  0.001  0.000  0.003  0.000  0.000  0.000  0.000  0.000  0.003
   10  0.000  0.001  0.000  0.003  0.000  0.000  0.000  0.000  0.000  0.003
tot    0.027  0.011  0.000  0.011  0.000  0.000  0.871  0.000  0.000  0.921

band    29 # energy   -3.26674710 # occ.  1.00000000

ion      s     py     pz     px    dxy    dyz    dz2    dxz  x2-y2    tot
    1  0.000  0.001  0.000  0.004  0.264  0.088  0.000  0.001  0.007  0.365
    2  0.000  0.000  0.000  0.005  0.218  0.068  0.000  0.022  0.053  0.366
    3  0.000  0.000  0.000  0.002  0.000  0.000  0.000  0.000  0.000  0.003
    4  0.000  0.000  0.000  0.005  0.000  0.000  0.000  0.000  0.000  0.006
    5  0.000  0.003  0.008  0.000  0.000  0.000  0.000  0.000  0.000  0.012
    6  0.000  0.003  0.005  0.013  0.000  0.000  0.000  0.000  0.000  0.021
    7  0.000  0.008  0.000  0.026  0.000  0.000  0.000  0.000  0.000  0.034
    8  0.000  0.003  0.013  0.002  0.000  0.000  0.000  0.000  0.000  0.018
    9  0.000  0.001  0.008  0.014  0.000  0.000  0.000  0.000  0.000  0.023
   10  0.000  0.006  0.001  0.023  0.000  0.000  0.000  0.000  0.000  0.029
tot    0.001  0.025  0.034  0.095  0.481  0.156  0.000  0.023  0.060  0.876

band    30 # energy   -3.26673713 # occ.  1.00000000

ion      s     py     pz     px    dxy    dyz    dz2    dxz  x2-y2    tot
    1  0.000  0.004  0.000  0.001  0.007  0.001  0.000  0.088  0.264  0.365
    2  0.000  0.005  0.000  0.000  0.053  0.022  0.000  0.068  0.218  0.366
    3  0.000  0.002  0.000  0.000  0.000  0.000  0.000  0.000  0.000  0.003
    4  0.000  0.005  0.000  0.000  0.000  0.000  0.000  0.000  0.000  0.006
    5  0.000  0.032  0.001  0.000  0.000  0.000  0.000  0.000  0.000  0.033
    6  0.000  0.006  0.004  0.014  0.000  0.000  0.000  0.000  0.000  0.024
    7  0.000  0.001  0.008  0.001  0.000  0.000  0.000  0.000  0.000  0.010
    8  0.000  0.027  0.001  0.000  0.000  0.000  0.000  0.000  0.000  0.028
    9  0.000  0.009  0.006  0.009  0.000  0.000  0.000  0.000  0.000  0.024
   10  0.000  0.004  0.014  0.000  0.000  0.000  0.000  0.000  0.000  0.018
tot    0.001  0.095  0.034  0.025  0.060  0.023  0.000  0.156  0.481  0.876

band    31 # energy   -3.13165593 # occ.  1.00000000

ion      s     py     pz     px    dxy    dyz    dz2    dxz  x2-y2    tot
    1  0.013  0.000  0.000  0.000  0.000  0.000  0.263  0.000  0.000  0.276
    2  0.013  0.000  0.000  0.000  0.000  0.000  0.263  0.000  0.000  0.276
    3  0.001  0.000  0.043  0.000  0.000  0.000  0.000  0.000  0.000  0.043
    4  0.001  0.000  0.037  0.000  0.000  0.000  0.003  0.000  0.000  0.041
    5  0.002  0.000  0.013  0.003  0.000  0.000  0.000  0.000  0.000  0.018
    6  0.002  0.002  0.013  0.001  0.000  0.000  0.000  0.000  0.000  0.018
    7  0.002  0.002  0.013  0.001  0.000  0.000  0.000  0.000  0.000  0.018
    8  0.001  0.000  0.028  0.001  0.000  0.000  0.000  0.000  0.000  0.031
    9  0.001  0.001  0.028  0.000  0.000  0.000  0.000  0.000  0.000  0.031