<?xml version="1.0" encoding="ISO-8859-1"?>
<modeling>
 <generator>
  <i name="program" type="string">vasp </i>
  <i name="version" type="string">5.4.4.18Apr17-6-g9f103f2a35  </i>
  <i name="subversion" type="string">(build May  1 2020 15:48:39) complex            parallel </i>
  <i name="platform" type="string">LinuxGNU </i>
  <i name="date" type="string">2020 06 21 </i>
  <i name="time" type="string">10:18:40 </i>
 </generator>
 <incar>
  <i type="int" name="ISTART">     1</i>
  <i type="string" name="PREC">accurate</i>
  <i type="string" name="ALGO"> Normal</i>
  <i type="int" name="ISPIN">     2</i>
  <i name="AMIN">      0.01000000</i>
  <i type="int" name="NELM">   400</i>
  <i type="int" name="IBRION">     2</i>
  <i name="EDIFF">      0.00010000</i>
  <i type="int" name="NSW">    99</i>
  <i type="int" name="ISIF">     3</i>
  <i name="ENCUT">    520.00000000</i>
  <v name="MAGMOM">      5.00000000      5.00000000      0.60000000      0.60000000      0.60000000      0.60000000      0.60000000      0.60000000      0.60000000      0.60000000</v>
  <i type="string" name="LREAL"> Auto</i>
  <i type="int" name="ISMEAR">    -5</i>
  <i name="SIGMA">      0.05000000</i>
  <i type="logical" name="LWAVE"> F  </i>
  <i type="int" name="LORBIT">    11</i>
  <v type="int" name="KPOINT_BSE">    -1     0     0     0</v>
  <i type="int" name="NELM">   400</i>
  <i type="string" name="GGA"> Bo</i>
  <i name="PARAM1">      0.18333333</i>
  <i name="PARAM2">      0.22000000</i>
  <i type="logical" name="LUSE_VDW"> T  </i>
  <i name="AGGAC">      0.00000000</i>
 </incar>
 <structure name="primitive_cell" >
  <crystal>
   <varray name="basis" >
    <v>       6.90777700      -0.00000000       0.00000000 </v>
    <v>       3.45388800       5.98231000       0.00000000 </v>
    <v>       0.00000000       0.00000000      23.44458800 </v>
   </varray>
   <i name="volume">    968.83501932 </i>
   <varray name="rec_basis" >
    <v>       0.14476437      -0.08357974       0.00000000 </v>
    <v>       0.00000000       0.16715951      -0.00000000 </v>
    <v>      -0.00000000       0.00000000       0.04265377 </v>
   </varray>
  </crystal>
  <varray name="positions" >
   <v>       0.33333300       0.33333300       0.49992500 </v>
   <v>       0.00042000       0.37322400      -0.42624800 </v>
   <v>      -0.37364300       0.00042000      -0.42624800 </v>
   <v>       0.37322400      -0.37364300      -0.42624800 </v>
   <v>       0.37364300      -0.00042000       0.42624800 </v>
   <v>      -0.37322400       0.37364300       0.42624800 </v>
   <v>      -0.00042000      -0.37322400       0.42624800 </v>
   <v>      -0.33333300      -0.33333300      -0.49992500 </v>
   <v>       0.00000000       0.00000000       0.44821600 </v>
   <v>       0.00000000       0.00000000      -0.44821600 </v>
  </varray>
 </structure>
 <varray name="primitive_index" >
  <v type="int" >        1 </v>
  <v type="int" >        6 </v>
  <v type="int" >        5 </v>
  <v type="int" >        7 </v>
  <v type="int" >        8 </v>
  <v type="int" >       10 </v>
  <v type="int" >        9 </v>
  <v type="int" >        2 </v>
  <v type="int" >        3 </v>
  <v type="int" >        4 </v>
 </varray>
 <kpoints>
  <generation param="Gamma">
   <v type="int" name="divisions">       5        5        1 </v>
   <v name="usershift">      0.00000000       0.00000000       0.00000000 </v>
   <v name="genvec1">      0.20000000       0.00000000       0.00000000 </v>
   <v name="genvec2">      0.00000000       0.20000000       0.00000000 </v>
   <v name="genvec3">      0.00000000       0.00000000       1.00000000 </v>
   <v name="shift">      0.00000000       0.00000000       0.00000000 </v>
  </generation>
  <varray name="kpointlist" >
   <v>       0.00000000       0.00000000       0.00000000 </v>
   <v>       0.20000000       0.00000000       0.00000000 </v>
   <v>       0.40000000       0.00000000       0.00000000 </v>
   <v>       0.40000000       0.20000000       0.00000000 </v>
   <v>      -0.40000000       0.20000000       0.00000000 </v>
  </varray>
  <varray name="weights" >
   <v>       0.04000000 </v>
   <v>       0.24000000 </v>
   <v>       0.24000000 </v>
   <v>       0.24000000 </v>
   <v>       0.24000000 </v>
  </varray>
  <varray name="tetrahedronlist"  type="int" >
   <v type="int" >        6        1        1        2        2 </v>
   <v type="int" >       12        1        2        2        2 </v>
   <v type="int" >       12        2        2        3        4 </v>
   <v type="int" >       12        2        2        2        4 </v>
   <v type="int" >       12        2        3        3        4 </v>
   <v type="int" >       12        2        3        4        4 </v>
   <v type="int" >        6        2        2        4        4 </v>
   <v type="int" >       12        3        3        3        5 </v>
   <v type="int" >       12        3        3        4        5 </v>
   <v type="int" >       12        3        4        4        5 </v>
   <v type="int" >        6        3        3        5        5 </v>
   <v type="int" >       12        3        4        5        5 </v>
   <v type="int" >        6        4        4        5        5 </v>
   <v type="int" >       12        4        5        5        5 </v>
   <v type="int" >        6        5        5        5        5 </v>
  </varray>
  <i name="volumeweight">      0.00666667 </i>
 </kpoints>
 <parameters>
  <separator name="general" >
   <i type="string" name="SYSTEM">unknown system</i>
   <i type="logical" name="LCOMPAT"> F  </i>
  </separator>
  <separator name="electronic" >
   <i type="string" name="PREC">accura</i>
   <i name="ENMAX">    520.00000000</i>
   <i name="ENAUG">    402.10800000</i>
   <i name="EDIFF">      0.00010000</i>
   <i type="int" name="IALGO">    38</i>
   <i type="int" name="IWAVPR">    11</i>
   <i type="int" name="NBANDS">    48</i>
   <i name="NELECT">     57.00000000</i>
   <i type="int" name="TURBO">     0</i>
   <i type="int" name="IRESTART">     0</i>
   <i type="int" name="NREBOOT">     0</i>
   <i type="int" name="NMIN">     0</i>
   <i name="EREF">      0.00000000</i>
   <separator name="electronic smearing" >
    <i type="int" name="ISMEAR">    -5</i>
    <i name="SIGMA">      0.05000000</i>
    <i name="KSPACING">      0.50000000</i>
    <i type="logical" name="KGAMMA"> T  </i>
   </separator>
   <separator name="electronic projectors" >
    <i type="logical" name="LREAL"> T  </i>
    <v name="ROPT">     -0.00025000     -0.00025000     -0.00025000     -0.00025000</v>
    <i type="int" name="LMAXPAW">  -100</i>
    <i type="int" name="LMAXMIX">     2</i>
    <i type="logical" name="NLSPLINE"> F  </i>
   </separator>
   <separator name="electronic startup" >
    <i type="int" name="ISTART">     0</i>
    <i type="int" name="ICHARG">     2</i>
    <i type="int" name="INIWAV">     1</i>
   </separator>
   <separator name="electronic spin" >
    <i type="int" name="ISPIN">     2</i>
    <i type="logical" name="LNONCOLLINEAR"> F  </i>
    <v name="MAGMOM">      5.00000000      5.00000000      0.60000000      0.60000000      0.60000000      0.60000000      0.60000000      0.60000000      0.60000000      0.60000000</v>
    <i name="NUPDOWN">     -1.00000000</i>
    <i type="logical" name="LSORBIT"> F  </i>
    <v name="SAXIS">      0.00000000      0.00000000      1.00000000</v>
    <i type="logical" name="LSPIRAL"> F  </i>
    <v name="QSPIRAL">      0.00000000      0.00000000      0.00000000</v>
    <i type="logical" name="LZEROZ"> F  </i>
   </separator>
   <separator name="electronic exchange-correlation" >
    <i type="logical" name="LASPH"> F  </i>
    <i type="logical" name="LMETAGGA"> F  </i>
   </separator>
   <separator name="electronic convergence" >
    <i type="int" name="NELM">   400</i>
    <i type="int" name="NELMDL">     0</i>
    <i type="int" name="NELMIN">     2</i>
    <i name="ENINI">    520.00000000</i>
    <separator name="electronic convergence detail" >
     <i type="logical" name="LDIAG"> T  </i>
     <i type="logical" name="LSUBROT"> F  </i>
     <i name="WEIMIN">      0.00100000</i>
     <i name="EBREAK">      0.00000052</i>
     <i name="DEPER">      0.30000000</i>
     <i type="int" name="NRMM">     4</i>
     <i name="TIME">      0.40000000</i>
    </separator>
   </separator>
   <separator name="electronic mixer" >
    <i name="AMIX">      0.40000000</i>
    <i name="BMIX">      1.00000000</i>
    <i name="AMIN">      0.01000000</i>
    <i name="AMIX_MAG">      1.60000000</i>
    <i name="BMIX_MAG">      1.00000000</i>
    <separator name="electronic mixer details" >
     <i type="int" name="IMIX">     4</i>
     <i type="logical" name="MIXFIRST"> F  </i>
     <i type="int" name="MAXMIX">   -45</i>
     <i name="WC">    100.00000000</i>
     <i type="int" name="INIMIX">     1</i>
     <i type="int" name="MIXPRE">     1</i>
     <i type="int" name="MREMOVE">     5</i>
    </separator>
   </separator>
   <separator name="electronic dipolcorrection" >
    <i type="logical" name="LDIPOL"> F  </i>
    <i type="logical" name="LMONO"> F  </i>
    <i type="int" name="IDIPOL">     0</i>
    <i name="EPSILON">      1.00000000</i>
    <v name="DIPOL">   -100.00000000   -100.00000000   -100.00000000</v>
    <i name="EFIELD">      0.00000000</i>
   </separator>
  </separator>
  <separator name="grids" >
   <i type="int" name="NGX">    54</i>
   <i type="int" name="NGY">    54</i>
   <i type="int" name="NGZ">   180</i>
   <i type="int" name="NGXF">   108</i>
   <i type="int" name="NGYF">   108</i>
   <i type="int" name="NGZF">   360</i>
   <i type="logical" name="ADDGRID"> F  </i>
  </separator>
  <separator name="ionic" >
   <i type="int" name="NSW">    99</i>
   <i type="int" name="IBRION">     2</i>
   <i type="int" name="MDALGO">     0</i>
   <i type="int" name="ISIF">     3</i>
   <i name="PSTRESS">      0.00000000</i>
   <i name="EDIFFG">      0.00100000</i>
   <i type="int" name="NFREE">     1</i>
   <i name="POTIM">      0.50000000</i>
   <i name="SMASS">     -3.00000000</i>
   <i name="SCALEE">      1.00000000</i>
  </separator>
  <separator name="ionic md" >
   <i name="TEBEG">      0.00010000</i>
   <i name="TEEND">      0.00010000</i>
   <i type="int" name="NBLOCK">     1</i>
   <i type="int" name="KBLOCK">    99</i>
   <i type="int" name="NPACO">   256</i>
   <i name="APACO">     16.00000000</i>
  </separator>
  <separator name="symmetry" >
   <i type="int" name="ISYM">     2</i>
   <i name="SYMPREC">      0.00001000</i>
  </separator>
  <separator name="dos" >
   <i type="int" name="LORBIT">    11</i>
   <v name="RWIGS">     -1.00000000     -1.00000000     -1.00000000     -1.00000000</v>
   <i type="int" name="NEDOS">   301</i>
   <i name="EMIN">     10.00000000</i>
   <i name="EMAX">    -10.00000000</i>
   <i name="EFERMI">      0.00000000</i>
  </separator>
  <separator name="writing" >
   <i type="int" name="NWRITE">     2</i>
   <i type="logical" name="LWAVE"> F  </i>
   <i type="logical" name="LDOWNSAMPLE"> F  </i>
   <i type="logical" name="LCHARG"> T  </i>
   <i type="logical" name="LPARD"> F  </i>
   <i type="logical" name="LVTOT"> F  </i>
   <i type="logical" name="LVHAR"> F  </i>
   <i type="logical" name="LELF"> F  </i>
   <i type="logical" name="LOPTICS"> F  </i>
   <v name="STM">      0.00000000      0.00000000      0.00000000      0.00000000      0.00000000      0.00000000      0.00000000</v>
  </separator>
  <separator name="performance" >
   <i type="int" name="NPAR">    16</i>
   <i type="int" name="NSIM">     4</i>
   <i type="int" name="NBLK">    -1</i>
   <i type="logical" name="LPLANE"> T  </i>
   <i type="logical" name="LSCALAPACK"> T  </i>
   <i type="logical" name="LSCAAWARE"> F  </i>
   <i type="logical" name="LSCALU"> F  </i>
   <i type="logical" name="LASYNC"> F  </i>
   <i type="logical" name="LORBITALREAL"> F  </i>
  </separator>
  <separator name="miscellaneous" >
   <i type="int" name="IDIOT">     3</i>
   <i type="int" name="ISPECIAL">     0</i>
   <i type="logical" name="LMUSIC"> F  </i>
   <v name="POMASS">     51.99600000     30.97400000     72.61000000     32.06600000</v>
   <v name="DARWINR">      0.00000000      0.00000000      0.00000000      0.00000000</v>
   <v name="DARWINV">      1.00000000      1.00000000      1.00000000      1.00000000</v>
   <i type="logical" name="LCORR"> T  </i>
  </separator>
  <i type="logical" name="GGA_COMPAT"> T  </i>
  <i type="logical" name="LBERRY"> F  </i>
  <i type="int" name="ICORELEVEL">     0</i>
  <i type="logical" name="LDAU"> F  </i>
  <i type="int" name="I_CONSTRAINED_M">     0</i>
  <separator name="electronic exchange-correlation" >
   <i type="string" name="GGA">BO</i>
   <i type="int" name="VOSKOWN">     0</i>
   <i type="logical" name="LHFCALC"> F  </i>
   <i type="string" name="PRECFOCK"></i>
   <i type="logical" name="LSYMGRAD"> F  </i>
   <i type="logical" name="LHFONE"> F  </i>
   <i type="logical" name="LRHFCALC"> F  </i>
   <i type="logical" name="LTHOMAS"> F  </i>
   <i type="logical" name="LMODELHF"> F  </i>
   <i name="ENCUT4O">     -1.00000000</i>
   <i type="int" name="EXXOEP">     0</i>
   <i type="int" name="FOURORBIT">     0</i>
   <i name="AEXX">      0.00000000</i>
   <i name="HFALPHA">      0.00000000</i>
   <i name="MCALPHA">      0.00000000</i>
   <i name="ALDAX">      1.00000000</i>
   <i name="AGGAX">      1.00000000</i>
   <i name="ALDAC">      1.00000000</i>
   <i name="AGGAC">      0.00000000</i>
   <i type="int" name="NKREDX">     1</i>
   <i type="int" name="NKREDY">     1</i>
   <i type="int" name="NKREDZ">     1</i>
   <i type="logical" name="SHIFTRED"> F  </i>
   <i type="logical" name="ODDONLY"> F  </i>
   <i type="logical" name="EVENONLY"> F  </i>
   <i type="int" name="LMAXFOCK">     0</i>
   <i type="int" name="NMAXFOCKAE">     0</i>
   <i type="logical" name="LFOCKAEDFT"> F  </i>
   <i name="HFSCREEN">      0.00000000</i>
   <i name="HFSCREENC">      0.00000000</i>
   <i type="int" name="NBANDSGWLOW">     0</i>
  </separator>
  <separator name="vdW DFT" >
   <i type="logical" name="LUSE_VDW"> T  </i>
   <i name="Zab_VDW">     -0.84910000</i>
   <i name="PARAM1">      0.18333333</i>
   <i name="PARAM2">      0.22000000</i>
   <i name="PARAM3">      0.00000000</i>
  </separator>
  <separator name="model GW" >
   <i type="int" name="MODEL_GW">     0</i>
   <i name="MODEL_EPS0">     58.13010116</i>
   <i name="MODEL_ALPHA">      1.00000000</i>
  </separator>
  <separator name="linear response parameters" >
   <i type="logical" name="LEPSILON"> F  </i>
   <i type="logical" name="LRPA"> F  </i>
   <i type="logical" name="LNABLA"> F  </i>
   <i type="logical" name="LVEL"> F  </i>
   <i type="int" name="KINTER">     0</i>
   <i name="CSHIFT">      0.10000000</i>
   <i name="OMEGAMAX">     -1.00000000</i>
   <i name="DEG_THRESHOLD">      0.00200000</i>
   <i name="RTIME">     -0.10000000</i>
   <i name="WPLASMAI">      0.00000000</i>
   <v name="DFIELD">      0.00000000      0.00000000      0.00000000</v>
   <v name="WPLASMA">      0.00000000      0.00000000      0.00000000      0.00000000      0.00000000      0.00000000      0.00000000      0.00000000      0.00000000</v>
  </separator>
  <separator name="orbital magnetization" >
   <i type="logical" name="NUCIND"> F  </i>
   <v name="MAGPOS">      0.00000000      0.00000000      0.00000000</v>
   <i type="logical" name="LNICSALL"> T  </i>
   <i type="logical" name="ORBITALMAG"> F  </i>
   <i type="logical" name="LMAGBLOCH"> F  </i>
   <i type="logical" name="LCHIMAG"> F  </i>
   <i type="logical" name="LGAUGE"> T  </i>
   <i type="int" name="MAGATOM">     0</i>
   <v name="MAGDIPOL">      0.00000000      0.00000000      0.00000000</v>
   <v name="AVECCONST">      0.00000000      0.00000000      0.00000000</v>
  </separator>
  <separator name="response functions" >
   <i type="logical" name="LADDER"> F  </i>
   <i type="logical" name="LRPAFORCE"> F  </i>
   <i type="logical" name="LFXC"> F  </i>
   <i type="logical" name="LHARTREE"> T  </i>
   <i type="int" name="IBSE">     0</i>
   <v type="int" name="KPOINT">    -1     0     0     0</v>
   <i type="logical" name="LTCTE"> F  </i>
   <i type="logical" name="LTETE"> F  </i>
   <i type="logical" name="LTRIPLET"> F  </i>
   <i type="logical" name="LFXCEPS"> F  </i>
   <i type="logical" name="LFXHEG"> F  </i>
   <i type="int" name="NATURALO">     2</i>
   <i type="logical" name="L2ORDER"> F  </i>
   <i type="logical" name="LMP2LT"> F  </i>
   <i type="logical" name="LUSEW"> F  </i>
   <i name="ENCUTGW">     -2.00000000</i>
   <i name="ENCUTGWSOFT">     -2.00000000</i>
   <i name="ENCUTLF">     -1.00000000</i>
   <i type="int" name="LMAXMP2">    -1</i>
   <i name="SCISSOR">      0.00000000</i>
   <i type="int" name="NOMEGA">     0</i>
   <i type="int" name="NOMEGAR">     0</i>
   <i type="int" name="NBANDSGW">    -1</i>
   <i type="int" name="NBANDSO">    -1</i>
   <i type="int" name="NBANDSV">    -1</i>
   <i type="int" name="NELM">   400</i>
   <i type="int" name="NELMHF">     1</i>
   <i type="int" name="DIM">     3</i>
   <i type="int" name="ANTIRES">     0</i>
   <i name="OMEGAMAX">    -30.00000000</i>
   <i name="OMEGAMIN">    -30.00000000</i>
   <i name="OMEGATL">   -200.00000000</i>
   <i type="int" name="OMEGAGRID">   140</i>
   <i name="CSHIFT">     -0.10000000</i>
   <i type="logical" name="SELFENERGY"> F  </i>
   <i type="logical" name="LSPECTRAL"> F  </i>
   <i type="logical" name="LSPECTRALGW"> F  </i>
   <i type="logical" name="LSINGLES"> F  </i>
   <i type="logical" name="LFERMIGW"> F  </i>
   <i type="logical" name="ODDONLYGW"> F  </i>
   <i type="logical" name="EVENONLYGW"> F  </i>
   <i type="int" name="NKREDLFX">     1</i>
   <i type="int" name="NKREDLFY">     1</i>
   <i type="int" name="NKREDLFZ">     1</i>
   <i type="int" name="MAXMEM">  2800</i>
   <i type="int" name="TELESCOPE">     0</i>
   <i type="int" name="TAUPAR">     1</i>
   <i type="int" name="OMEGAPAR">    -1</i>
   <i name="LAMBDA">      1.00000000</i>
  </separator>
  <separator name="External order field" >
   <i name="OFIELD_KAPPA">      0.00000000</i>
   <v name="OFIELD_K">      0.00000000      0.00000000      0.00000000</v>
   <i name="OFIELD_Q6_NEAR">      0.00000000</i>
   <i name="OFIELD_Q6_FAR">      0.00000000</i>
   <i name="OFIELD_A">      0.00000000</i>
  </separator>
 </parameters>
 <atominfo>
  <atoms>      10 </atoms>
  <types>       4 </types>
  <array name="atoms" >
   <dimension dim="1">ion</dimension>
   <field type="string">element</field>
   <field type="int">atomtype</field>
   <set>
    <rc><c>Cr</c><c>   1</c></rc>
    <rc><c>Cr</c><c>   1</c></rc>
    <rc><c>P </c><c>   2</c></rc>
    <rc><c>Ge</c><c>   3</c></rc>
    <rc><c>S </c><c>   4</c></rc>
    <rc><c>S </c><c>   4</c></rc>
    <rc><c>S </c><c>   4</c></rc>
    <rc><c>S </c><c>   4</c></rc>
    <rc><c>S </c><c>   4</c></rc>
    <rc><c>S </c><c>   4</c></rc>
   </set>
  </array>
  <array name="atomtypes" >
   <dimension dim="1">type</dimension>
   <field type="int">atomspertype</field>
   <field type="string">element</field>
   <field>mass</field>
   <field>valence</field>
   <field type="string">pseudopotential</field>
   <set>
    <rc><c>   2</c><c>Cr</c><c>     51.99600000</c><c>      6.00000000</c><c> PAW_PBE Cr 06Sep2000                   </c></rc>
    <rc><c>   1</c><c>P </c><c>     30.97400000</c><c>      5.00000000</c><c>  PAW_PBE P 17Jan2003                   </c></rc>
    <rc><c>   1</c><c>Ge</c><c>     72.61000000</c><c>      4.00000000</c><c> PAW_PBE Ge 05Jan2001                   </c></rc>
    <rc><c>   6</c><c>S </c><c>     32.06600000</c><c>      6.00000000</c><c>  PAW_PBE S 17Jan2003                   </c></rc>
   </set>
  </array>
 </atominfo>
 <structure name="initialpos" >
  <crystal>
   <varray name="basis" >
    <v>       6.90777700      -0.00000000       0.00000000 </v>
    <v>       3.45388800       5.98231000       0.00000000 </v>
    <v>       0.00000000       0.00000000      23.44458800 </v>
   </varray>
   <i name="volume">    968.83501932 </i>
   <varray name="rec_basis" >
    <v>       0.14476437      -0.08357974       0.00000000 </v>
    <v>       0.00000000       0.16715951      -0.00000000 </v>
    <v>      -0.00000000       0.00000000       0.04265377 </v>
   </varray>
  </crystal>
  <varray name="positions" >
   <v>       0.33333300       0.33333300       0.49992500 </v>
   <v>       0.66666700       0.66666700       0.50007500 </v>
   <v>       0.00000000       0.00000000       0.44821600 </v>
   <v>       0.00000000       0.00000000       0.55178400 </v>
   <v>       0.62635700       0.00042000       0.57375200 </v>
   <v>       0.00042000       0.37322400       0.57375200 </v>
   <v>       0.37322400       0.62635700       0.57375200 </v>
   <v>       0.37364300       0.99958000       0.42624800 </v>
   <v>       0.99958000       0.62677600       0.42624800 </v>
   <v>       0.62677600       0.37364300       0.42624800 </v>
  </varray>
  <varray name="selective"  type="logical" >
   <v type="logical" >  F  F  F </v>
   <v type="logical" >  F  F  F </v>
   <v type="logical" >  T  T  T </v>
   <v type="logical" >  F  F  F </v>
   <v type="logical" >  T  T  T </v>
   <v type="logical" >  T  T  T </v>
   <v type="logical" >  T  T  T </v>
   <v type="logical" >  T  T  T </v>
   <v type="logical" >  T  T  T </v>
   <v type="logical" >  T  T  T </v>
  </varray>
  <nose>
   <v>      -3.00000000       0.00000000       0.00010000       0.00010000 </v>
  </nose>
 </structure>
 <calculation>
  <scstep>
   <time name="dav">   22.27   22.45</time>
   <time name="total">   75.23   75.53</time>
   <energy>
    <i name="alphaZ">     20.97303478 </i>
    <i name="ewald">   6221.61188061 </i>
    <i name="hartreedc">  -8427.49049463 </i>
    <i name="XCdc">     25.72937997 </i>
    <i name="pawpsdc">   1132.53073645 </i>
    <i name="pawaedc">  -1045.77553778 </i>
    <i name="eentropy">      0.00000000 </i>
    <i name="bandstr">    -20.62947458 </i>
    <i name="atom">   2505.77835381 </i>
    <i name="e_fr_energy">    412.72787863 </i>
    <i name="e_wo_entrp">    412.72787863 </i>
    <i name="e_0_energy">    412.72787863 </i>
   </energy>
  </scstep>
  <scstep>
   <time name="dav">   26.88   26.95</time>
   <time name="total">   26.88   26.95</time>
   <energy>
    <i name="e_fr_energy">     38.53519134 </i>
    <i name="e_wo_entrp">     38.53519134 </i>
    <i name="e_0_energy">     38.53519134 </i>
   </energy>
  </scstep>
  <scstep>
   <time name="dav">   31.08   31.46</time>
   <time name="total">   31.08   31.47</time>
   <energy>
    <i name="e_fr_energy">    -49.97458981 </i>
    <i name="e_wo_entrp">    -49.97458981 </i>
    <i name="e_0_energy">    -49.97458981 </i>
   </energy>
  </scstep>
  <scstep>
   <time name="dav">   30.62   30.87</time>
   <time name="total">   30.62   30.88</time>
   <energy>
    <i name="e_fr_energy">    -55.04519876 </i>
    <i name="e_wo_entrp">    -55.04519876 </i>
    <i name="e_0_energy">    -55.04519876 </i>
   </energy>
  </scstep>
  <scstep>
   <time name="dav">   30.36   30.45</time>
   <time name="total">   32.39   32.49</time>
   <energy>
    <i name="e_fr_energy">    -55.19203117 </i>
    <i name="e_wo_entrp">    -55.19203117 </i>
    <i name="e_0_energy">    -55.19203117 </i>
   </energy>
  </scstep>
  <scstep>
   <time name="dav">   32.84   32.95</time>
   <time name="total">   87.10   87.34</time>
   <energy>
    <i name="e_fr_energy">   -134.43871454 </i>
    <i name="e_wo_entrp">   -134.43871454 </i>
    <i name="e_0_energy">   -134.43871454 </i>
   </energy>
  </scstep>
  <scstep>
   <time name="dav">   25.94   26.00</time>
   <time name="total">   80.04   80.20</time>
   <energy>
    <i name="e_fr_energy">    -41.04025630 </i>
    <i name="e_wo_entrp">    -41.04025630 </i>
    <i name="e_0_energy">    -41.04025630 </i>
   </energy>
  </scstep>
  <scstep>
   <time name="dav">   31.67   32.03</time>
   <time name="total">   85.50   86.02</time>
   <energy>
    <i name="e_fr_energy">    -44.84554512 </i>
    <i name="e_wo_entrp">    -44.84554512 </i>
    <i name="e_0_energy">    -44.84554512 </i>
   </energy>
  </scstep>
  <scstep>
   <time name="dav">   33.76   34.01</time>
   <time name="total">   86.57   87.07</time>
   <energy>
    <i name="e_fr_energy">    -46.60374039 </i>
    <i name="e_wo_entrp">    -46.60374039 </i>
    <i name="e_0_energy">    -46.60374039 </i>
   </energy>
  </scstep>
  <scstep>
   <time name="dav">   33.70   33.89</time>
   <time name="total">   86.62   86.90</time>
   <energy>
    <i name="e_fr_energy">    -46.98278797 </i>
    <i name="e_wo_entrp">    -46.98278797 </i>
    <i name="e_0_energy">    -46.98278797 </i>
   </energy>
  </scstep>
  <scstep>
   <time name="dav">   33.22   33.45</time>
   <time name="total">   86.06   86.48</time>
   <energy>
    <i name="e_fr_energy">    -47.24109196 </i>
    <i name="e_wo_entrp">    -47.24109196 </i>
    <i name="e_0_energy">    -47.24109196 </i>
   </energy>
  </scstep>
  <scstep>
   <time name="dav">   29.00   29.25</time>
   <time name="total">   81.96   82.40</time>
   <energy>
    <i name="e_fr_energy">    -47.39267329 </i>
    <i name="e_wo_entrp">    -47.39267329 </i>
    <i name="e_0_energy">    -47.39267329 </i>
   </energy>
  </scstep>
  <scstep>
   <time name="dav">   32.82   33.11</time>
   <time name="total">   85.85   86.28</time>
   <energy>
    <i name="e_fr_energy">    -47.58723824 </i>
    <i name="e_wo_entrp">    -47.58723824 </i>
    <i name="e_0_energy">    -47.58723824 </i>
   </energy>
  </scstep>
  <scstep>
   <time name="dav">   30.54   30.75</time>
   <time name="total">   83.33   83.93</time>
   <energy>
    <i name="e_fr_energy">    -47.72123189 </i>
    <i name="e_wo_entrp">    -47.72123189 </i>
    <i name="e_0_energy">    -47.72123189 </i>
   </energy>
  </scstep>
  <scstep>
   <time name="dav">   25.61   25.88</time>
   <time name="total">   78.36   79.08</time>
   <energy>
    <i name="e_fr_energy">    -47.78511064 </i>
    <i name="e_wo_entrp">    -47.78511064 </i>
    <i name="e_0_energy">    -47.78511064 </i>
   </energy>
  </scstep>
  <scstep>
   <time name="dav">   28.50   28.57</time>
   <time name="total">   81.52   81.75</time>
   <energy>
    <i name="e_fr_energy">    -47.78750827 </i>
    <i name="e_wo_entrp">    -47.78750827 </i>
    <i name="e_0_energy">    -47.78750827 </i>
   </energy>
  </scstep>
  <scstep>
   <time name="dav">   31.81   32.10</time>
   <time name="total">   84.76   85.11</time>
   <energy>
    <i name="e_fr_energy">    -47.78809269 </i>
    <i name="e_wo_entrp">    -47.78809269 </i>
    <i name="e_0_energy">    -47.78809269 </i>
   </energy>
  </scstep>
  <scstep>
   <time name="dav">   24.41   24.47</time>
   <time name="total">   77.47   77.61</time>
   <energy>
    <i name="e_fr_energy">    -47.78861649 </i>
    <i name="e_wo_entrp">    -47.78861649 </i>
    <i name="e_0_energy">    -47.78861649 </i>
   </energy>
  </scstep>
  <scstep>
   <time name="dav">   21.67   21.72</time>
   <time name="total">   74.63   74.77</time>
   <energy>
    <i name="e_fr_energy">    -47.78878977 </i>
    <i name="e_wo_entrp">    -47.78878977 </i>
    <i name="e_0_energy">    -47.78878977 </i>
   </energy>
  </scstep>
  <scstep>
   <time name="dav">   22.37   22.42</time>
   <time name="total">   75.32   75.39</time>
   <energy>
    <i name="e_fr_energy">    -47.78890087 </i>
    <i name="e_wo_entrp">    -47.78890087 </i>
    <i name="e_0_energy">    -47.78890087 </i>
   </energy>
  </scstep>
  <scstep>
   <time name="dav">   19.78   19.88</time>
   <time name="total">   72.60   72.79</time>
   <energy>
    <i name="e_fr_energy">    -47.78902530 </i>
    <i name="e_wo_entrp">    -47.78902530 </i>
    <i name="e_0_energy">    -47.78902530 </i>
   </energy>
  </scstep>
  <scstep>
   <time name="dav">   23.26   23.33</time>
   <time name="total">   74.22   74.34</time>
   <energy>
    <i name="alphaZ">     20.97303478 </i>
    <i name="ewald">   6221.61188061 </i>
    <i name="hartreedc">  -8421.76608535 </i>
    <i name="XCdc">     25.95616450 </i>
    <i name="pawpsdc">   1128.18327079 </i>
    <i name="pawaedc">  -1041.53528178 </i>
    <i name="eentropy">      0.00000000 </i>
    <i name="bandstr">   -486.99043034 </i>
    <i name="atom">   2505.77835381 </i>
    <i name="e_fr_energy">    -47.78909298 </i>
    <i name="e_wo_entrp">    -47.78909298 </i>
    <i name="e_0_energy">    -47.78909298 </i>
   </energy>
  </scstep>
  <structure>
   <crystal>
    <varray name="basis" >
     <v>       6.90777700      -0.00000000       0.00000000 </v>
     <v>       3.45388800       5.98231000       0.00000000 </v>
     <v>       0.00000000       0.00000000      23.44458800 </v>
    </varray>
    <i name="volume">    968.83501932 </i>
    <varray name="rec_basis" >
     <v>       0.14476437      -0.08357974       0.00000000 </v>
     <v>       0.00000000       0.16715951      -0.00000000 </v>
     <v>      -0.00000000       0.00000000       0.04265377 </v>
    </varray>
   </crystal>
   <varray name="positions" >
    <v>       0.33333300       0.33333300       0.49992500 </v>
    <v>       0.66666700       0.66666700       0.50007500 </v>
    <v>       0.00000000       0.00000000       0.44821600 </v>
    <v>       0.00000000       0.00000000       0.55178400 </v>
    <v>       0.62635700       0.00042000       0.57375200 </v>
    <v>       0.00042000       0.37322400       0.57375200 </v>
    <v>       0.37322400       0.62635700       0.57375200 </v>
    <v>       0.37364300       0.99958000       0.42624800 </v>
    <v>       0.99958000       0.62677600       0.42624800 </v>
    <v>       0.62677600       0.37364300       0.42624800 </v>
   </varray>
  </structure>
  <varray name="forces" >
   <v>      -0.00000000      -0.00000000       0.11038181 </v>
   <v>      -0.00000000      -0.00000000       0.09210603 </v>
   <v>      -0.00000000      -0.00000000      -0.77419329 </v>
   <v>      -0.00000000      -0.00000000       0.36392742 </v>
   <v>       0.85455102      -0.00469580      -1.71395802 </v>
   <v>      -0.43134213      -0.73771495      -1.71395802 </v>
   <v>      -0.42320889       0.74241074      -1.71395802 </v>
   <v>      -0.95341518       0.00340759       1.78321736 </v>
   <v>       0.47965858       0.82397792       1.78321736 </v>
   <v>       0.47375660      -0.82738551       1.78321736 </v>
  </varray>
  <varray name="stress" >
   <v>     -44.17583849       0.00000370       0.00000000 </v>
   <v>       0.00000368     -44.17583309       0.00000000 </v>
   <v>       0.00000000       0.00000000     -27.94632894 </v>
  </varray>
  <energy>
   <i name="e_fr_energy">    -47.78909298 </i>
   <i name="e_wo_entrp">    -47.78909298 </i>
   <i name="e_0_energy">      0.00000000 </i>
  </energy>
  <time name="totalsc"> 1725.20 1732.64</time>
 </calculation>
 <calculation>
  <scstep>
   <time name="dav">   28.87   29.06</time>
   <time name="total">   82.62   83.14</time>
   <energy>
    <i name="alphaZ">     30.09049893 </i>
    <i name="ewald">   7921.65589590 </i>
    <i name="hartreedc"> -10361.79733910 </i>
    <i name="XCdc">     42.44611747 </i>
    <i name="pawpsdc">   1128.20201829 </i>
    <i name="pawaedc">  -1041.55460465 </i>
    <i name="eentropy">      0.00000000 </i>
    <i name="bandstr">   -300.79723119 </i>
    <i name="atom">   2505.77835381 </i>
    <i name="e_fr_energy">    -75.97629052 </i>
    <i name="e_wo_entrp">    -75.97629052 </i>
    <i name="e_0_energy">    -75.97629052 </i>
   </energy>
  </scstep>
  <scstep>
   <time name="dav">   33.49   34.05</time>
   <time name="total">   87.13   88.02</time>
   <energy>
    <i name="e_fr_energy">    -59.10001713 </i>
    <i name="e_wo_entrp">    -59.10001713 </i>
    <i name="e_0_energy">    -59.10001713 </i>
   </energy>
  </scstep>
  <scstep>
   <time name="dav">   33.80   33.88</time>
   <time name="total">   87.59   87.83</time>
   <energy>
    <i name="e_fr_energy">    -58.23786400 </i>
    <i name="e_wo_entrp">    -58.23786400 </i>
    <i name="e_0_energy">    -58.23786400 </i>
   </energy>
  </scstep>
  <scstep>
   <time name="dav">   33.68   35.45</time>
   <time name="total">   88.15   90.13</time>
   <energy>
    <i name="e_fr_energy">    -54.15017272 </i>
    <i name="e_wo_entrp">    -54.15017272 </i>
    <i name="e_0_energy">    -54.15017272 </i>
   </energy>
  </scstep>
  <scstep>
   <time name="dav">   34.69   34.76</time>
   <time name="total">   88.74   88.97</time>
   <energy>
    <i name="e_fr_energy">    -53.94028222 </i>
    <i name="e_wo_entrp">    -53.94028222 </i>
    <i name="e_0_energy">    -53.94028222 </i>
   </energy>
  </scstep>
  <scstep>
   <time name="dav">   33.44   33.71</time>
   <time name="total">   87.22   87.81</time>
   <energy>
    <i name="e_fr_energy">    -54.01387648 </i>
    <i name="e_wo_entrp">    -54.01387648 </i>
    <i name="e_0_energy">    -54.01387648 </i>
   </energy>
  </scstep>
  <scstep>
   <time name="dav">   33.44   33.59</time>
   <time name="total">   87.60   87.81</time>
   <energy>
    <i name="e_fr_energy">    -54.00764425 </i>
    <i name="e_wo_entrp">    -54.00764425 </i>
    <i name="e_0_energy">    -54.00764425 </i>
   </energy>
  </scstep>
  <scstep>
   <time name="dav">   34.66   35.04</time>
   <time name="total">   88.42   89.19</time>
   <energy>
    <i name="e_fr_energy">    -54.00558646 </i>
    <i name="e_wo_entrp">    -54.00558646 </i>
    <i name="e_0_energy">    -54.00558646 </i>
   </energy>
  </scstep>
  <scstep>
   <time name="dav">   28.30   28.39</time>
   <time name="total">   81.87   82.55</time>
   <energy>
    <i name="e_fr_energy">    -54.01785900 </i>
    <i name="e_wo_entrp">    -54.01785900 </i>
    <i name="e_0_energy">    -54.01785900 </i>
   </energy>
  </scstep>
  <scstep>
   <time name="dav">   24.33   24.37</time>
   <time name="total">   78.21   78.55</time>
   <energy>
    <i name="e_fr_energy">    -54.02411643 </i>
    <i name="e_wo_entrp">    -54.02411643 </i>
    <i name="e_0_energy">    -54.02411643 </i>
   </energy>
  </scstep>
  <scstep>
   <time name="dav">   26.59   26.75</time>
   <time name="total">   80.71   80.98</time>
   <energy>
    <i name="e_fr_energy">    -54.02711957 </i>
    <i name="e_wo_entrp">    -54.02711957 </i>
    <i name="e_0_energy">    -54.02711957 </i>
   </energy>
  </scstep>
  <scstep>
   <time name="dav">   25.74   25.79</time>
   <time name="total">   79.84   80.03</time>
   <energy>
    <i name="e_fr_energy">    -54.02699951 </i>
    <i name="e_wo_entrp">    -54.02699951 </i>
    <i name="e_0_energy">    -54.02699951 </i>
   </energy>
  </scstep>
  <scstep>
   <time name="dav">   27.33   27.87</time>
   <time name="total">   81.66   82.53</time>
   <energy>
    <i name="e_fr_energy">    -54.02530272 </i>
    <i name="e_wo_entrp">    -54.02530272 </i>
    <i name="e_0_energy">    -54.02530272 </i>
   </energy>
  </scstep>
  <scstep>
   <time name="dav">   26.28   26.42</time>
   <time name="total">   80.03   80.42</time>
   <energy>
    <i name="e_fr_energy">    -54.02399477 </i>
    <i name="e_wo_entrp">    -54.02399477 </i>
    <i name="e_0_energy">    -54.02399477 </i>
   </energy>
  </scstep>
  <scstep>
   <time name="dav">   22.51   22.78</time>
   <time name="total">   76.32   76.83</time>
   <energy>
    <i name="e_fr_energy">    -54.02257053 </i>
    <i name="e_wo_entrp">    -54.02257053 </i>
    <i name="e_0_energy">    -54.02257053 </i>
   </energy>
  </scstep>
  <scstep>
   <time name="dav">   22.08   22.11</time>
   <time name="total">   75.68   76.17</time>
   <energy>
    <i name="e_fr_energy">    -54.02062867 </i>
    <i name="e_wo_entrp">    -54.02062867 </i>
    <i name="e_0_energy">    -54.02062867 </i>
   </energy>
  </scstep>
  <scstep>
   <time name="dav">   21.88   22.15</time>
   <time name="total">   78.09   78.79</time>
   <energy>
    <i name="e_fr_energy">    -54.01803898 </i>
    <i name="e_wo_entrp">    -54.01803898 </i>
    <i name="e_0_energy">    -54.01803898 </i>
   </energy>
  </scstep>
  <scstep>
   <time name="dav">   24.98   25.06</time>
   <time name="total">   78.61   79.18</time>
   <energy>
    <i name="e_fr_energy">    -54.01655834 </i>
    <i name="e_wo_entrp">    -54.01655834 </i>
    <i name="e_0_energy">    -54.01655834 </i>
   </energy>
  </scstep>
  <scstep>
   <time name="dav">   21.94   22.19</time>
   <time name="total">   73.97   74.26</time>
   <energy>
    <i name="alphaZ">     30.09049893 </i>
    <i name="ewald">   7921.65589590 </i>
    <i name="hartreedc"> -10159.63914004 </i>
    <i name="XCdc">     31.85834144 </i>
    <i name="pawpsdc">   1255.57642706 </i>
    <i name="pawaedc">  -1170.54844516 </i>
    <i name="eentropy">      0.00000000 </i>
    <i name="bandstr">   -468.78846683 </i>
    <i name="atom">   2505.77835381 </i>
    <i name="e_fr_energy">    -54.01653489 </i>
    <i name="e_wo_entrp">    -54.01653489 </i>
    <i name="e_0_energy">    -54.01653489 </i>
   </energy>
  </scstep>
  <structure>
   <crystal>
    <varray name="basis" >
     <v>       6.01756478       0.00000007       0.00000000 </v>
     <v>       3.00878202       5.21136379       0.00000000 </v>
     <v>       0.00000000       0.00000000      21.53324861 </v>
    </varray>
    <i name="volume">    675.27662487 </i>
    <varray name="rec_basis" >
     <v>       0.16618018      -0.09594416       0.00000000 </v>
     <v>      -0.00000000       0.19188835      -0.00000000 </v>
     <v>       0.00000000       0.00000000       0.04643981 </v>
    </varray>
   </crystal>
   <varray name="positions" >
    <v>       0.33333300       0.33333300       0.49992500 </v>
    <v>       0.66666700       0.66666700       0.50007500 </v>
    <v>      -0.00000000      -0.00000000       0.44662292 </v>
    <v>       0.00000000       0.00000000       0.55178400 </v>
    <v>       0.63234396       0.00038213       0.57022514 </v>
    <v>       0.00038213       0.36727491       0.57022514 </v>
    <v>       0.36727491       0.63234396       0.57022514 </v>
    <v>       0.36697078       0.99960748       0.42991738 </v>
    <v>       0.99960748       0.63342074       0.42991738 </v>
    <v>       0.63342074       0.36697078       0.42991738 </v>
   </varray>
  </structure>
  <varray name="forces" >
   <v>       0.00000000      -0.00000000      -0.18647886 </v>
   <v>       0.00000000       0.00000000      -0.18558434 </v>
   <v>       0.00000000      -0.00000000      -1.18295223 </v>
   <v>       0.00000000       0.00000000       0.34469458 </v>
   <v>      -0.20869958      -0.00773290       0.07575019 </v>
   <v>       0.09765289       0.18460558       0.07575019 </v>
   <v>       0.11104669      -0.17687268       0.07575019 </v>
   <v>      -0.41872224       0.00820933       0.32769009 </v>
   <v>       0.21647059       0.35851941       0.32769009 </v>
   <v>       0.20225165      -0.36672875       0.32769009 </v>
  </varray>
  <varray name="stress" >
   <v>      -3.31473470      -0.00000034       0.00000000 </v>
   <v>       0.00000073      -3.31473441       0.00000000 </v>
   <v>      -0.00000000       0.00000000       1.22059923 </v>
  </varray>
  <energy>
   <i name="e_fr_energy">    -54.01653489 </i>
   <i name="e_wo_entrp">    -54.01653489 </i>
   <i name="e_0_energy">      0.00000000 </i>
  </energy>
  <time name="totalsc"> 1697.43 1709.23</time>
 </calculation>
 <calculation>
  <scstep>
   <time name="dav">   27.30   27.34</time>
   <time name="total">   81.50   81.88</time>
   <energy>
    <i name="alphaZ">     30.40770161 </i>
    <i name="ewald">   7978.25842630 </i>
    <i name="hartreedc"> -10222.18953383 </i>
    <i name="XCdc">     32.32244644 </i>
    <i name="pawpsdc">   1255.47359218 </i>
    <i name="pawaedc">  -1170.43952285 </i>
    <i name="eentropy">      0.00000000 </i>
    <i name="bandstr">   -463.65096648 </i>
    <i name="atom">   2505.77835381 </i>
    <i name="e_fr_energy">    -54.03950281 </i>
    <i name="e_wo_entrp">    -54.03950281 </i>
    <i name="e_0_energy">    -54.03950281 </i>
   </energy>
  </scstep>
  <scstep>
   <time name="dav">   28.20   28.62</time>
   <time name="total">   82.08   82.82</time>
   <energy>
    <i name="e_fr_energy">    -54.02710634 </i>
    <i name="e_wo_entrp">    -54.02710634 </i>
    <i name="e_0_energy">    -54.02710634 </i>
   </energy>
  </scstep>
  <scstep>
   <time name="dav">   31.00   31.41</time>
   <time name="total">   84.66   85.57</time>
   <energy>
    <i name="e_fr_energy">    -54.02520889 </i>
    <i name="e_wo_entrp">    -54.02520889 </i>
    <i name="e_0_energy">    -54.02520889 </i>
   </energy>
  </scstep>
  <scstep>
   <time name="dav">   31.92   31.97</time>
   <time name="total">   87.24   87.42</time>
   <energy>
    <i name="e_fr_energy">    -54.02318168 </i>
    <i name="e_wo_entrp">    -54.02318168 </i>
    <i name="e_0_energy">    -54.02318168 </i>
   </energy>
  </scstep>
  <scstep>
   <time name="dav">   29.80   30.07</time>
   <time name="total">   83.82   84.23</time>
   <energy>
    <i name="e_fr_energy">    -54.02303814 </i>
    <i name="e_wo_entrp">    -54.02303814 </i>
    <i name="e_0_energy">    -54.02303814 </i>
   </energy>
  </scstep>
  <scstep>
   <time name="dav">   22.48   22.52</time>
   <time name="total">   77.04   77.14</time>
   <energy>
    <i name="e_fr_energy">    -54.02318752 </i>
    <i name="e_wo_entrp">    -54.02318752 </i>
    <i name="e_0_energy">    -54.02318752 </i>
   </energy>
  </scstep>
  <scstep>
   <time name="dav">   20.13   20.22</time>
   <time name="total">   71.85   72.14</time>
   <energy>
    <i name="alphaZ">     30.40770161 </i>
    <i name="ewald">   7978.25842630 </i>
    <i name="hartreedc"> -10217.81980444 </i>
    <i name="XCdc">     32.07589453 </i>
    <i name="pawpsdc">   1260.93445996 </i>
    <i name="pawaedc">  -1175.98138420 </i>
    <i name="eentropy">      0.00000000 </i>
    <i name="bandstr">   -467.67692548 </i>
    <i name="atom">   2505.77835381 </i>
    <i name="e_fr_energy">    -54.02327792 </i>
    <i name="e_wo_entrp">    -54.02327792 </i>
    <i name="e_0_energy">    -54.02327792 </i>
   </energy>
  </scstep>
  <structure>
   <crystal>
    <varray name="basis" >
     <v>       5.99333888       0.00000008       0.00000000 </v>
     <v>       2.99666907       5.19038354       0.00000000 </v>
     <v>       0.00000000       0.00000000      21.48123412 </v>
    </varray>
    <i name="volume">    668.23237153 </i>
    <varray name="rec_basis" >
     <v>       0.16685190      -0.09633198       0.00000000 </v>
     <v>      -0.00000000       0.19266399      -0.00000000 </v>
     <v>       0.00000000       0.00000000       0.04655226 </v>
    </varray>
   </crystal>
   <varray name="positions" >
    <v>       0.33333300       0.33333300       0.49992500 </v>
    <v>       0.66666700       0.66666700       0.50007500 </v>
    <v>      -0.00000000      -0.00000000       0.44657572 </v>
    <v>       0.00000000       0.00000000       0.55178400 </v>
    <v>       0.63253099       0.00038095       0.57012064 </v>
    <v>       0.00038095       0.36708906       0.57012064 </v>
    <v>       0.36708906       0.63253099       0.57012064 </v>
    <v>       0.36676235       0.99960834       0.43002610 </v>
    <v>       0.99960834       0.63362832       0.43002610 </v>
    <v>       0.63362832       0.36676235       0.43002610 </v>
   </varray>
  </structure>
  <varray name="forces" >
   <v>      -0.00000000      -0.00000000      -0.17714570 </v>
   <v>      -0.00000000      -0.00000000      -0.17550178 </v>
   <v>       0.00000000      -0.00000000      -1.17279125 </v>
   <v>      -0.00000000       0.00000000       0.33594994 </v>
   <v>      -0.28942567      -0.00810140       0.16634909 </v>
   <v>       0.13769680       0.25470067       0.16634909 </v>
   <v>       0.15172887      -0.24659927       0.16634909 </v>
   <v>      -0.40560408       0.00956544       0.23014717 </v>
   <v>       0.21108593       0.34648070       0.23014717 </v>
   <v>       0.19451815      -0.35604614       0.23014717 </v>
  </varray>
  <varray name="stress" >
   <v>      -0.17506059      -0.00000095       0.00000000 </v>
   <v>       0.00000097      -0.17506058      -0.00000000 </v>
   <v>       0.00000000      -0.00000000       3.17638655 </v>
  </varray>
  <energy>
   <i name="e_fr_energy">    -54.02327792 </i>
   <i name="e_wo_entrp">    -54.02327792 </i>
   <i name="e_0_energy">      0.00000000 </i>
  </energy>
  <time name="totalsc">  704.45  708.42</time>
 </calculation>
 <calculation>
  <scstep>
   <time name="dav">   22.85   22.98</time>
   <time name="total">   77.12   77.45</time>
   <energy>
    <i name="alphaZ">     30.37717670 </i>
    <i name="ewald">   8072.38252785 </i>
    <i name="hartreedc"> -10305.03955242 </i>
    <i name="XCdc">     32.04767772 </i>
    <i name="pawpsdc">   1261.29929579 </i>
    <i name="pawaedc">  -1176.35644260 </i>
    <i name="eentropy">      0.00000000 </i>
    <i name="bandstr">   -474.55191637 </i>
    <i name="atom">   2505.77835381 </i>
    <i name="e_fr_energy">    -54.06287952 </i>
    <i name="e_wo_entrp">    -54.06287952 </i>
    <i name="e_0_energy">    -54.06287952 </i>
   </energy>
  </scstep>
  <scstep>
   <time name="dav">   26.84   26.93</time>
   <time name="total">   80.79   81.17</time>
   <energy>
    <i name="e_fr_energy">    -54.09007231 </i>
    <i name="e_wo_entrp">    -54.09007231 </i>
    <i name="e_0_energy">    -54.09007231 </i>
   </energy>
  </scstep>
  <scstep>
   <time name="dav">   33.57   34.07</time>
   <time name="total">   87.70   88.30</time>
   <energy>
    <i name="e_fr_energy">    -54.08877875 </i>
    <i name="e_wo_entrp">    -54.08877875 </i>
    <i name="e_0_energy">    -54.08877875 </i>
   </energy>
  </scstep>
  <scstep>
   <time name="dav">   31.34   31.59</time>
   <time name="total">   85.39   85.72</time>
   <energy>
    <i name="e_fr_energy">    -54.08681897 </i>
    <i name="e_wo_entrp">    -54.08681897 </i>
    <i name="e_0_energy">    -54.08681897 </i>
   </energy>
  </scstep>
  <scstep>
   <time name="dav">   33.07   33.47</time>
   <time name="total">   87.79   88.90</time>
   <energy>
    <i name="e_fr_energy">    -54.08611206 </i>
    <i name="e_wo_entrp">    -54.08611206 </i>
    <i name="e_0_energy">    -54.08611206 </i>
   </energy>
  </scstep>
  <scstep>
   <time name="dav">   23.17   23.36</time>
   <time name="total">   75.66   75.98</time>
   <energy>
    <i name="alphaZ">     30.37717670 </i>
    <i name="ewald">   8072.38252785 </i>
    <i name="hartreedc"> -10308.46940840 </i>
    <i name="XCdc">     32.08739277 </i>
    <i name="pawpsdc">   1261.04440492 </i>
    <i name="pawaedc">  -1176.09064854 </i>
    <i name="eentropy">      0.00000000 </i>
    <i name="bandstr">   -471.19582238 </i>
    <i name="atom">   2505.77835381 </i>
    <i name="e_fr_energy">    -54.08602328 </i>
    <i name="e_wo_entrp">    -54.08602328 </i>
    <i name="e_0_energy">    -54.08602328 </i>
   </energy>
  </scstep>
  <structure>
   <crystal>
    <varray name="basis" >
     <v>       5.98052838       0.00000007      -0.00000000 </v>
     <v>       2.99026384       5.17928932      -0.00000000 </v>
     <v>       0.00000000       0.00000000      21.59503801 </v>
    </varray>
    <i name="volume">    668.90385360 </i>
    <varray name="rec_basis" >
     <v>       0.16720931      -0.09653833      -0.00000000 </v>
     <v>      -0.00000000       0.19307668      -0.00000000 </v>
     <v>       0.00000000       0.00000000       0.04630693 </v>
    </varray>
   </crystal>
   <varray name="positions" >
    <v>       0.33333300       0.33333300       0.49992500 </v>
    <v>       0.66666700       0.66666700       0.50007500 </v>
    <v>      -0.00000000      -0.00000000       0.44390346 </v>
    <v>       0.00000000       0.00000000       0.55178400 </v>
    <v>       0.63032196       0.00030464       0.57044299 </v>
    <v>       0.00030464       0.36937441       0.57044299 </v>
    <v>       0.36937441       0.63032196       0.57044299 </v>
    <v>       0.36332860       0.99969817       0.43060120 </v>
    <v>       0.99969817       0.63697223       0.43060120 </v>
    <v>       0.63697223       0.36332860       0.43060120 </v>
   </varray>
  </structure>
  <varray name="forces" >
   <v>      -0.00000000      -0.00000000      -0.00373328 </v>
   <v>      -0.00000000      -0.00000000      -0.00790758 </v>
   <v>       0.00000000       0.00000000       0.14177149 </v>
   <v>      -0.00000000      -0.00000000      -0.39797057 </v>
   <v>      -0.18635598      -0.00552467       0.03965763 </v>
   <v>       0.08839348       0.16415135       0.03965763 </v>
   <v>       0.09796251      -0.15862668       0.03965763 </v>
   <v>      -0.10328668       0.00588668       0.04962235 </v>
   <v>       0.05674135       0.08650555       0.04962235 </v>
   <v>       0.04654533      -0.09239223       0.04962235 </v>
  </varray>
  <varray name="stress" >
   <v>       1.36530833      -0.00000092       0.00000000 </v>
   <v>       0.00000076       1.36530821       0.00000000 </v>
   <v>       0.00000000       0.00000000      -0.97366185 </v>
  </varray>
  <energy>
   <i name="e_fr_energy">    -54.08602328 </i>
   <i name="e_wo_entrp">    -54.08602328 </i>
   <i name="e_0_energy">      0.00000000 </i>
  </energy>
  <time name="totalsc">  629.96  633.68</time>
 </calculation>
 <calculation>
  <scstep>
   <time name="dav">   25.18   25.34</time>
   <time name="total">   78.83   79.46</time>
   <energy>
    <i name="alphaZ">     30.37619595 </i>
    <i name="ewald">   8075.47107446 </i>
    <i name="hartreedc"> -10311.60028766 </i>
    <i name="XCdc">     32.08913454 </i>
    <i name="pawpsdc">   1260.88547410 </i>
    <i name="pawaedc">  -1175.92697438 </i>
    <i name="eentropy">      0.00000000 </i>
    <i name="bandstr">   -471.15902895 </i>
    <i name="atom">   2505.77835381 </i>
    <i name="e_fr_energy">    -54.08605813 </i>
    <i name="e_wo_entrp">    -54.08605813 </i>
    <i name="e_0_energy">    -54.08605813 </i>
   </energy>
  </scstep>
  <scstep>
   <time name="dav">   29.14   29.40</time>
   <time name="total">   80.98   81.54</time>
   <energy>
    <i name="alphaZ">     30.37619595 </i>
    <i name="ewald">   8075.47107446 </i>
    <i name="hartreedc"> -10311.79033027 </i>
    <i name="XCdc">     32.09234809 </i>
    <i name="pawpsdc">   1260.84360963 </i>
    <i name="pawaedc">  -1175.88594710 </i>
    <i name="eentropy">      0.00000000 </i>
    <i name="bandstr">   -470.97142645 </i>
    <i name="atom">   2505.77835381 </i>
    <i name="e_fr_energy">    -54.08612189 </i>
    <i name="e_wo_entrp">    -54.08612189 </i>
    <i name="e_0_energy">    -54.08612189 </i>
   </energy>
  </scstep>
  <structure>
   <crystal>
    <varray name="basis" >
     <v>       5.98010858       0.00000007      -0.00000000 </v>
     <v>       2.99005394       5.17892576      -0.00000000 </v>
     <v>       0.00000000       0.00000000      21.59876738 </v>
    </varray>
    <i name="volume">    668.92545039 </i>
    <varray name="rec_basis" >
     <v>       0.16722104      -0.09654511      -0.00000000 </v>
     <v>      -0.00000000       0.19309024      -0.00000000 </v>
     <v>       0.00000000       0.00000000       0.04629894 </v>
    </varray>
   </crystal>
   <varray name="positions" >
    <v>       0.33333300       0.33333300       0.49992500 </v>
    <v>       0.66666700       0.66666700       0.50007500 </v>
    <v>      -0.00000000      -0.00000000       0.44381635 </v>
    <v>       0.00000000       0.00000000       0.55178400 </v>
    <v>       0.63024941       0.00030213       0.57045350 </v>
    <v>       0.00030213       0.36944946       0.57045350 </v>
    <v>       0.36944946       0.63024941       0.57045350 </v>
    <v>       0.36321584       0.99970112       0.43061994 </v>
    <v>       0.99970112       0.63708204       0.43061994 </v>
    <v>       0.63708204       0.36321584       0.43061994 </v>
   </varray>
  </structure>
  <varray name="forces" >
   <v>      -0.00000000      -0.00000000       0.00304725 </v>
   <v>      -0.00000000      -0.00000000      -0.00062026 </v>
   <v>      -0.00000000      -0.00000000       0.18158883 </v>
   <v>      -0.00000000      -0.00000000      -0.41792167 </v>
   <v>      -0.18320840      -0.00260324       0.03652117 </v>
   <v>       0.08934971       0.15996474       0.03652117 </v>
   <v>       0.09385868      -0.15736150       0.03652117 </v>
   <v>      -0.09394509       0.00882998       0.04144744 </v>
   <v>       0.05461953       0.07694384       0.04144744 </v>
   <v>       0.03932556      -0.08577382       0.04144744 </v>
  </varray>
  <varray name="stress" >
   <v>       1.36086467      -0.00000074       0.00000000 </v>
   <v>       0.00000058       1.36086455       0.00000000 </v>
   <v>      -0.00000000       0.00000000      -1.18652309 </v>
  </varray>
  <energy>
   <i name="e_fr_energy">    -54.08612189 </i>
   <i name="e_wo_entrp">    -54.08612189 </i>
   <i name="e_0_energy">      0.00000000 </i>
  </energy>
  <time name="totalsc">  295.32  297.01</time>
 </calculation>
 <calculation>
  <scstep>
   <time name="dav">   23.09   23.18</time>
   <time name="total">   77.06   77.34</time>
   <energy>
    <i name="alphaZ">     30.27878216 </i>
    <i name="ewald">   8005.04818280 </i>
    <i name="hartreedc"> -10242.68754822 </i>
    <i name="XCdc">     31.96615703 </i>
    <i name="pawpsdc">   1260.82119864 </i>
    <i name="pawaedc">  -1175.86211593 </i>
    <i name="eentropy">      0.00000000 </i>
    <i name="bandstr">   -469.43578126 </i>
    <i name="atom">   2505.77835381 </i>
    <i name="e_fr_energy">    -54.09277097 </i>
    <i name="e_wo_entrp">    -54.09277097 </i>
    <i name="e_0_energy">    -54.09277097 </i>
   </energy>
  </scstep>
  <scstep>
   <time name="dav">   27.22   27.41</time>
   <time name="total">   81.68   82.03</time>
   <energy>
    <i name="e_fr_energy">    -54.09537500 </i>
    <i name="e_wo_entrp">    -54.09537500 </i>
    <i name="e_0_energy">    -54.09537500 </i>
   </energy>
  </scstep>
  <scstep>
   <time name="dav">   29.46   29.57</time>
   <time name="total">   83.36   83.86</time>
   <energy>
    <i name="e_fr_energy">    -54.09490606 </i>
    <i name="e_wo_entrp">    -54.09490606 </i>
    <i name="e_0_energy">    -54.09490606 </i>
   </energy>
  </scstep>
  <scstep>
   <time name="dav">   30.72   30.93</time>
   <time name="total">   84.63   85.15</time>
   <energy>
    <i name="e_fr_energy">    -54.09464073 </i>
    <i name="e_wo_entrp">    -54.09464073 </i>
    <i name="e_0_energy">    -54.09464073 </i>
   </energy>
  </scstep>
  <scstep>
   <time name="dav">   28.70   29.04</time>
   <time name="total">   82.48   83.19</time>
   <energy>
    <i name="e_fr_energy">    -54.09457986 </i>
    <i name="e_wo_entrp">    -54.09457986 </i>
    <i name="e_0_energy">    -54.09457986 </i>
   </energy>
  </scstep>
  <scstep>
   <time name="dav">   24.88   25.23</time>
   <time name="total">   76.77   77.44</time>
   <energy>
    <i name="alphaZ">     30.27878216 </i>
    <i name="ewald">   8005.04818280 </i>
    <i name="hartreedc"> -10243.07532956 </i>
    <i name="XCdc">     32.01680831 </i>
    <i name="pawpsdc">   1258.80957791 </i>
    <i name="pawaedc">  -1173.81012341 </i>
    <i name="eentropy">      0.00000000 </i>
    <i name="bandstr">   -469.14084484 </i>
    <i name="atom">   2505.77835381 </i>
    <i name="e_fr_energy">    -54.09459283 </i>
    <i name="e_wo_entrp">    -54.09459283 </i>
    <i name="e_0_energy">    -54.09459283 </i>
   </energy>
  </scstep>
  <structure>
   <crystal>
    <varray name="basis" >
     <v>       5.99555739       0.00000006      -0.00000000 </v>
     <v>       2.99777834       5.19230481       0.00000000 </v>
     <v>       0.00000000       0.00000000      21.55673388 </v>
    </varray>
    <i name="volume">    671.07753713 </i>
    <varray name="rec_basis" >
     <v>       0.16679016      -0.09629634       0.00000000 </v>
     <v>      -0.00000000       0.19259270      -0.00000000 </v>
     <v>       0.00000000      -0.00000000       0.04638922 </v>
    </varray>
   </crystal>
   <varray name="positions" >
    <v>       0.33333300       0.33333300       0.49992500 </v>
    <v>       0.66666700       0.66666700       0.50007500 </v>
    <v>      -0.00000000      -0.00000000       0.44398978 </v>
    <v>       0.00000000       0.00000000       0.55178400 </v>
    <v>       0.62856846       0.00027077       0.57056465 </v>
    <v>       0.00027077       0.37116177       0.57056465 </v>
    <v>       0.37116177       0.62856846       0.57056465 </v>
    <v>       0.36210029       0.99979239       0.43076465 </v>
    <v>       0.99979239       0.63810632       0.43076465 </v>
    <v>       0.63810632       0.36210029       0.43076465 </v>
   </varray>
  </structure>
  <varray name="forces" >
   <v>       0.00000000      -0.00000000       0.03781960 </v>
   <v>       0.00000000      -0.00000000       0.02929016 </v>
   <v>       0.00000000      -0.00000000       0.10058870 </v>
   <v>       0.00000000      -0.00000000      -0.22768092 </v>
   <v>      -0.03871549      -0.00385357      -0.00587875 </v>
   <v>       0.01602045       0.03545539      -0.00587875 </v>
   <v>       0.02269504      -0.03160181      -0.00587875 </v>
   <v>      -0.08275674       0.00370844       0.02587291 </v>
   <v>       0.04458997       0.06981521       0.02587291 </v>
   <v>       0.03816677      -0.07352365       0.02587291 </v>
  </varray>
  <varray name="stress" >
   <v>      -0.43307730      -0.00000071       0.00000000 </v>
   <v>       0.00000076      -0.43307726      -0.00000000 </v>
   <v>       0.00000000      -0.00000000      -1.29497953 </v>
  </varray>
  <energy>
   <i name="e_fr_energy">    -54.09459283 </i>
   <i name="e_wo_entrp">    -54.09459283 </i>
   <i name="e_0_energy">      0.00000000 </i>
  </energy>
  <time name="totalsc">  621.10  625.15</time>
 </calculation>
 <calculation>
  <scstep>
   <time name="dav">   24.56   24.66</time>
   <time name="total">   78.47   78.75</time>
   <energy>
    <i name="alphaZ">     30.25169329 </i>
    <i name="ewald">   7985.47111107 </i>
    <i name="hartreedc"> -10223.84172610 </i>
    <i name="XCdc">     31.98065110 </i>
    <i name="pawpsdc">   1258.73369082 </i>
    <i name="pawaedc">  -1173.73362707 </i>
    <i name="eentropy">      0.00000000 </i>
    <i name="bandstr">   -468.73524280 </i>
    <i name="atom">   2505.77835381 </i>
    <i name="e_fr_energy">    -54.09509588 </i>
    <i name="e_wo_entrp">    -54.09509588 </i>
    <i name="e_0_energy">    -54.09509588 </i>
   </energy>
  </scstep>
  <scstep>
   <time name="dav">   25.29   25.64</time>
   <time name="total">   79.16   79.71</time>
   <energy>
    <i name="e_fr_energy">    -54.09531109 </i>
    <i name="e_wo_entrp">    -54.09531109 </i>
    <i name="e_0_energy">    -54.09531109 </i>
   </energy>
  </scstep>
  <scstep>
   <time name="dav">   22.99   23.16</time>
   <time name="total">   75.13   75.40</time>
   <energy>
    <i name="alphaZ">     30.25169329 </i>
    <i name="ewald">   7985.47111107 </i>
    <i name="hartreedc"> -10223.84202468 </i>
    <i name="XCdc">     31.99344699 </i>
    <i name="pawpsdc">   1258.38592633 </i>
    <i name="pawaedc">  -1173.37767373 </i>
    <i name="eentropy">      0.00000000 </i>
    <i name="bandstr">   -468.75612016 </i>
    <i name="atom">   2505.77835381 </i>
    <i name="e_fr_energy">    -54.09528707 </i>
    <i name="e_wo_entrp">    -54.09528707 </i>
    <i name="e_0_energy">    -54.09528707 </i>
   </energy>
  </scstep>
  <structure>
   <crystal>
    <varray name="basis" >
     <v>       5.99987694       0.00000005       0.00000000 </v>
     <v>       2.99993812       5.19604565       0.00000000 </v>
     <v>      -0.00000000       0.00000000      21.54498113 </v>
    </varray>
    <i name="volume">    671.67845331 </i>
    <varray name="rec_basis" >
     <v>       0.16667009      -0.09622701       0.00000000 </v>
     <v>      -0.00000000       0.19245405      -0.00000000 </v>
     <v>       0.00000000      -0.00000000       0.04641452 </v>
    </varray>
   </crystal>
   <varray name="positions" >
    <v>       0.33333300       0.33333300       0.49992500 </v>
    <v>       0.66666700       0.66666700       0.50007500 </v>
    <v>      -0.00000000      -0.00000000       0.44403837 </v>
    <v>       0.00000000       0.00000000       0.55178400 </v>
    <v>       0.62809967       0.00026202       0.57059579 </v>
    <v>       0.00026202       0.37163931       0.57059579 </v>
    <v>       0.37163931       0.62809967       0.57059579 </v>
    <v>       0.36178918       0.99981784       0.43080519 </v>
    <v>       0.99981784       0.63839198       0.43080519 </v>
    <v>       0.63839198       0.36178918       0.43080519 </v>
   </varray>
  </structure>
  <varray name="forces" >
   <v>       0.00000000       0.00000000       0.05120583 </v>
   <v>      -0.00000000      -0.00000000       0.04031461 </v>
   <v>       0.00000000       0.00000000       0.07699690 </v>
   <v>      -0.00000000      -0.00000000      -0.17497856 </v>
   <v>       0.00240175      -0.00545052      -0.01739950 </v>
   <v>      -0.00592117       0.00064529      -0.01739950 </v>
   <v>       0.00351942       0.00480524      -0.01739950 </v>
   <v>      -0.07929748       0.00117443       0.01955324 </v>
   <v>       0.04066582       0.06808641       0.01955324 </v>
   <v>       0.03863165      -0.06926084       0.01955324 </v>
  </varray>
  <varray name="stress" >
   <v>      -0.64493791      -0.00000056      -0.00000000 </v>
   <v>       0.00000063      -0.64493785       0.00000000 </v>
   <v>      -0.00000000       0.00000000      -1.17180977 </v>
  </varray>
  <energy>
   <i name="e_fr_energy">    -54.09528707 </i>
   <i name="e_wo_entrp">    -54.09528707 </i>
   <i name="e_0_energy">      0.00000000 </i>
  </energy>
  <time name="totalsc">  368.80  370.12</time>
 </calculation>
 <calculation>
  <scstep>
   <time name="dav">   27.58   27.71</time>
   <time name="total">   81.78   82.07</time>
   <energy>
    <i name="alphaZ">     30.39863649 </i>
    <i name="ewald">   7977.09029994 </i>
    <i name="hartreedc"> -10220.33302155 </i>
    <i name="XCdc">     32.22662044 </i>
    <i name="pawpsdc">   1258.27571777 </i>
    <i name="pawaedc">  -1173.27127829 </i>
    <i name="eentropy">      0.00000000 </i>
    <i name="bandstr">   -464.26683555 </i>
    <i name="atom">   2505.77835381 </i>
    <i name="e_fr_energy">    -54.10150695 </i>
    <i name="e_wo_entrp">    -54.10150695 </i>
    <i name="e_0_energy">    -54.10150695 </i>
   </energy>
  </scstep>
  <scstep>
   <time name="dav">   27.61   27.69</time>
   <time name="total">   81.61   81.86</time>
   <energy>
    <i name="e_fr_energy">    -54.09861338 </i>
    <i name="e_wo_entrp">    -54.09861338 </i>
    <i name="e_0_energy">    -54.09861338 </i>
   </energy>
  </scstep>
  <scstep>
   <time name="dav">   33.89   34.06</time>
   <time name="total">   88.04   88.34</time>
   <energy>
    <i name="e_fr_energy">    -54.09765022 </i>
    <i name="e_wo_entrp">    -54.09765022 </i>
    <i name="e_0_energy">    -54.09765022 </i>
   </energy>
  </scstep>
  <scstep>
   <time name="dav">   30.48   30.58</time>
   <time name="total">   84.58   84.72</time>
   <energy>
    <i name="e_fr_energy">    -54.09665116 </i>
    <i name="e_wo_entrp">    -54.09665116 </i>
    <i name="e_0_energy">    -54.09665116 </i>
   </energy>
  </scstep>
  <scstep>
   <time name="dav">   26.16   26.53</time>
   <time name="total">   78.14   78.77</time>
   <energy>
    <i name="alphaZ">     30.39863649 </i>
    <i name="ewald">   7977.09029994 </i>
    <i name="hartreedc"> -10217.45130589 </i>
    <i name="XCdc">     32.10068980 </i>
    <i name="pawpsdc">   1259.76319260 </i>
    <i name="pawaedc">  -1174.75804061 </i>
    <i name="eentropy">      0.00000000 </i>
    <i name="bandstr">   -467.01842735 </i>
    <i name="atom">   2505.77835381 </i>
    <i name="e_fr_energy">    -54.09660121 </i>
    <i name="e_wo_entrp">    -54.09660121 </i>
    <i name="e_0_energy">    -54.09660121 </i>
   </energy>
  </scstep>
  <structure>
   <crystal>
    <varray name="basis" >
     <v>       5.99382279       0.00000004      -0.00000000 </v>
     <v>       2.99691106       5.19080260       0.00000000 </v>
     <v>      -0.00000000       0.00000000      21.48417052 </v>
    </varray>
    <i name="volume">    668.43164384 </i>
    <varray name="rec_basis" >
     <v>       0.16683843      -0.09632421       0.00000000 </v>
     <v>      -0.00000000       0.19264844      -0.00000000 </v>
     <v>       0.00000000      -0.00000000       0.04654590 </v>
    </varray>
   </crystal>
   <varray name="positions" >
    <v>       0.33333300       0.33333300       0.49992500 </v>
    <v>       0.66666700       0.66666700       0.50007500 </v>
    <v>      -0.00000000      -0.00000000       0.44424851 </v>
    <v>       0.00000000       0.00000000       0.55178400 </v>
    <v>       0.62789776       0.00020329       0.57057075 </v>
    <v>       0.00020329       0.37189995       0.57057075 </v>
    <v>       0.37189995       0.62789776       0.57057075 </v>
    <v>       0.36093636       0.99984305       0.43087359 </v>
    <v>       0.99984305       0.63921959       0.43087359 </v>
    <v>       0.63921959       0.36093636       0.43087359 </v>
   </varray>
  </structure>
  <varray name="forces" >
   <v>      -0.00000000       0.00000000       0.06521027 </v>
   <v>      -0.00000000       0.00000000       0.05288979 </v>
   <v>      -0.00000000       0.00000000      -0.00259172 </v>
   <v>      -0.00000000      -0.00000000      -0.06358875 </v>
   <v>      -0.00756229       0.00113078       0.02290723 </v>
   <v>       0.00476044       0.00598375       0.02290723 </v>
   <v>       0.00280186      -0.00711453       0.02290723 </v>
   <v>      -0.05741375       0.00539282      -0.04021377 </v>
   <v>       0.03337719       0.04702535      -0.04021377 </v>
   <v>       0.02403656      -0.05241817      -0.04021377 </v>
  </varray>
  <varray name="stress" >
   <v>       0.09274891      -0.00000086      -0.00000000 </v>
   <v>       0.00000085       0.09274891       0.00000000 </v>
   <v>       0.00000000       0.00000000       0.04216934 </v>
  </varray>
  <energy>
   <i name="e_fr_energy">    -54.09660121 </i>
   <i name="e_wo_entrp">    -54.09660121 </i>
   <i name="e_0_energy">      0.00000000 </i>
  </energy>
  <time name="totalsc">  550.11  552.19</time>
 </calculation>
 <calculation>
  <scstep>
   <time name="dav">   27.23   27.35</time>
   <time name="total">   80.98   81.41</time>
   <energy>
    <i name="alphaZ">     30.42513081 </i>
    <i name="ewald">   7975.57964435 </i>
    <i name="hartreedc"> -10216.72619035 </i>
    <i name="XCdc">     32.14225763 </i>
    <i name="pawpsdc">   1260.05936536 </i>
    <i name="pawaedc">  -1175.06687489 </i>
    <i name="eentropy">      0.00000000 </i>
    <i name="bandstr">   -466.28842622 </i>
    <i name="atom">   2505.77835381 </i>
    <i name="e_fr_energy">    -54.09673950 </i>
    <i name="e_wo_entrp">    -54.09673950 </i>
    <i name="e_0_energy">    -54.09673950 </i>
   </energy>
  </scstep>
  <scstep>
   <time name="dav">   27.72   28.02</time>
   <time name="total">   81.54   82.13</time>
   <energy>
    <i name="e_fr_energy">    -54.09659946 </i>
    <i name="e_wo_entrp">    -54.09659946 </i>
    <i name="e_0_energy">    -54.09659946 </i>
   </energy>
  </scstep>
  <scstep>
   <time name="dav">   24.11   24.41</time>
   <time name="total">   75.98   76.54</time>
   <energy>
    <i name="alphaZ">     30.42513081 </i>
    <i name="ewald">   7975.57964435 </i>
    <i name="hartreedc"> -10216.22646365 </i>
    <i name="XCdc">     32.12229033 </i>
    <i name="pawpsdc">   1260.52760909 </i>
    <i name="pawaedc">  -1175.54486818 </i>
    <i name="eentropy">      0.00000000 </i>
    <i name="bandstr">   -466.75824372 </i>
    <i name="atom">   2505.77835381 </i>
    <i name="e_fr_energy">    -54.09654716 </i>
    <i name="e_wo_entrp">    -54.09654716 </i>
    <i name="e_0_energy">    -54.09654716 </i>
   </energy>
  </scstep>
  <structure>
   <crystal>
    <varray name="basis" >
     <v>       5.99273565       0.00000004      -0.00000000 </v>
     <v>       2.99636749       5.18986111       0.00000000 </v>
     <v>      -0.00000000       0.00000000      21.47325080 </v>
    </varray>
    <i name="volume">    667.84957108 </i>
    <varray name="rec_basis" >
     <v>       0.16686870      -0.09634168       0.00000000 </v>
     <v>      -0.00000000       0.19268338      -0.00000000 </v>
     <v>       0.00000000      -0.00000000       0.04656957 </v>
    </varray>
   </crystal>
   <varray name="positions" >
    <v>       0.33333300       0.33333300       0.49992500 </v>
    <v>       0.66666700       0.66666700       0.50007500 </v>
    <v>      -0.00000000      -0.00000000       0.44428635 </v>
    <v>       0.00000000       0.00000000       0.55178400 </v>
    <v>       0.62786147       0.00019273       0.57056625 </v>
    <v>       0.00019273       0.37194680       0.57056625 </v>
    <v>       0.37194680       0.62786147       0.57056625 </v>
    <v>       0.36078307       0.99984758       0.43088590 </v>
    <v>       0.99984758       0.63936835       0.43088590 </v>
    <v>       0.63936835       0.36078307       0.43088590 </v>
   </varray>
  </structure>
  <varray name="forces" >
   <v>       0.00000000       0.00000000       0.06794771 </v>
   <v>      -0.00000000       0.00000000       0.05307776 </v>
   <v>       0.00000000      -0.00000000      -0.02003531 </v>
   <v>       0.00000000      -0.00000000      -0.04171831 </v>
   <v>      -0.00405495      -0.00335882       0.03063410 </v>
   <v>      -0.00088135       0.00519110       0.03063410 </v>
   <v>       0.00493630      -0.00183228       0.03063410 </v>
   <v>      -0.04729395      -0.00040348      -0.05039138 </v>
   <v>       0.02329755       0.04115950      -0.05039138 </v>
   <v>       0.02399640      -0.04075602      -0.05039138 </v>
  </varray>
  <varray name="stress" >
   <v>      -0.37004990      -0.00000086       0.00000000 </v>
   <v>       0.00000091      -0.37004987      -0.00000000 </v>
   <v>      -0.00000000       0.00000000      -0.42249339 </v>
  </varray>
  <energy>
   <i name="e_fr_energy">    -54.09654716 </i>
   <i name="e_wo_entrp">    -54.09654716 </i>
   <i name="e_0_energy">      0.00000000 </i>
  </energy>
  <time name="totalsc">  375.66  377.84</time>
 </calculation>
 <calculation>
  <scstep>
   <time name="dav">   27.57   27.74</time>
   <time name="total">   81.50   81.83</time>
   <energy>
    <i name="alphaZ">     30.51174203 </i>
    <i name="ewald">   7974.18592494 </i>
    <i name="hartreedc"> -10216.93919119 </i>
    <i name="XCdc">     32.22365426 </i>
    <i name="pawpsdc">   1260.79401388 </i>
    <i name="pawaedc">  -1175.81541186 </i>
    <i name="eentropy">      0.00000000 </i>
    <i name="bandstr">   -464.83727416 </i>
    <i name="atom">   2505.77835381 </i>
    <i name="e_fr_energy">    -54.09818830 </i>
    <i name="e_wo_entrp">    -54.09818830 </i>
    <i name="e_0_energy">    -54.09818830 </i>
   </energy>
  </scstep>
  <scstep>
   <time name="dav">   27.19   27.35</time>
   <time name="total">   81.30   81.70</time>
   <energy>
    <i name="e_fr_energy">    -54.09755597 </i>
    <i name="e_wo_entrp">    -54.09755597 </i>
    <i name="e_0_energy">    -54.09755597 </i>
   </energy>
  </scstep>
  <scstep>
   <time name="dav">   31.47   31.68</time>
   <time name="total">   85.50   86.03</time>
   <energy>
    <i name="e_fr_energy">    -54.09725379 </i>
    <i name="e_wo_entrp">    -54.09725379 </i>
    <i name="e_0_energy">    -54.09725379 </i>
   </energy>
  </scstep>
  <scstep>
   <time name="dav">   32.97   33.02</time>
   <time name="total">   86.84   87.15</time>
   <energy>
    <i name="e_fr_energy">    -54.09703741 </i>
    <i name="e_wo_entrp">    -54.09703741 </i>
    <i name="e_0_energy">    -54.09703741 </i>
   </energy>
  </scstep>
  <scstep>
   <time name="dav">   23.71   23.85</time>
   <time name="total">   75.84   76.05</time>
   <energy>
    <i name="alphaZ">     30.51174203 </i>
    <i name="ewald">   7974.18592494 </i>
    <i name="hartreedc"> -10215.22003629 </i>
    <i name="XCdc">     32.16011283 </i>
    <i name="pawpsdc">   1261.39030351 </i>
    <i name="pawaedc">  -1176.41360731 </i>
    <i name="eentropy">      0.00000000 </i>
    <i name="bandstr">   -466.48982579 </i>
    <i name="atom">   2505.77835381 </i>
    <i name="e_fr_energy">    -54.09703228 </i>
    <i name="e_wo_entrp">    -54.09703228 </i>
    <i name="e_0_energy">    -54.09703228 </i>
   </energy>
  </scstep>
  <structure>
   <crystal>
    <varray name="basis" >
     <v>       5.98748265       0.00000003      -0.00000000 </v>
     <v>       2.99374100       5.18531188      -0.00000000 </v>
     <v>      -0.00000000       0.00000000      21.44988420 </v>
    </varray>
    <i name="volume">    665.95380028 </i>
    <varray name="rec_basis" >
     <v>       0.16701510      -0.09642621       0.00000000 </v>
     <v>      -0.00000000       0.19285243      -0.00000000 </v>
     <v>       0.00000000       0.00000000       0.04662030 </v>
    </varray>
   </crystal>
   <varray name="positions" >
    <v>       0.33333300       0.33333300       0.49992500 </v>
    <v>       0.66666700       0.66666700       0.50007500 </v>
    <v>      -0.00000000      -0.00000000       0.44424755 </v>
    <v>       0.00000000       0.00000000       0.55178400 </v>
    <v>       0.62783204       0.00015509       0.57064112 </v>
    <v>       0.00015509       0.37201387       0.57064112 </v>
    <v>       0.37201387       0.62783204       0.57064112 </v>
    <v>       0.36031902       0.99984475       0.43076417 </v>
    <v>       0.99984475       0.63983524       0.43076417 </v>
    <v>       0.63983524       0.36031902       0.43076417 </v>
   </varray>
  </structure>
  <varray name="forces" >
   <v>       0.00000000       0.00000000       0.07277075 </v>
   <v>       0.00000000       0.00000000       0.05553800 </v>
   <v>       0.00000000      -0.00000000      -0.00559113 </v>
   <v>       0.00000000      -0.00000000      -0.01806929 </v>
   <v>      -0.01781805       0.00073795       0.03113323 </v>
   <v>       0.00954811       0.01506191       0.03113323 </v>
   <v>       0.00826994      -0.01579986       0.03113323 </v>
   <v>      -0.03761754       0.00288280      -0.06601601 </v>
   <v>       0.02130534       0.03113635      -0.06601601 </v>
   <v>       0.01631220      -0.03401914      -0.06601601 </v>
  </varray>
  <varray name="stress" >
   <v>       0.76990909      -0.00000101       0.00000000 </v>
   <v>       0.00000092       0.76990902       0.00000000 </v>
   <v>       0.00000000       0.00000000       0.73179921 </v>
  </varray>
  <energy>
   <i name="e_fr_energy">    -54.09703228 </i>
   <i name="e_wo_entrp">    -54.09703228 </i>
   <i name="e_0_energy">      0.00000000 </i>
  </energy>
  <time name="totalsc">  546.80  549.12</time>
 </calculation>
 <calculation>
  <scstep>
   <time name="dav">   25.14   25.21</time>
   <time name="total">   79.40   79.52</time>
   <energy>
    <i name="alphaZ">     30.51902766 </i>
    <i name="ewald">   7974.06841178 </i>
    <i name="hartreedc"> -10215.18524483 </i>
    <i name="XCdc">     32.16823476 </i>
    <i name="pawpsdc">   1261.65308253 </i>
    <i name="pawaedc">  -1176.68825498 </i>
    <i name="eentropy">      0.00000000 </i>
    <i name="bandstr">   -466.41072797 </i>
    <i name="atom">   2505.77835381 </i>
    <i name="e_fr_energy">    -54.09711726 </i>
    <i name="e_wo_entrp">    -54.09711726 </i>
    <i name="e_0_energy">    -54.09711726 </i>
   </energy>
  </scstep>
  <scstep>
   <time name="dav">   19.48   19.65</time>
   <time name="total">   71.41   71.76</time>
   <energy>
    <i name="alphaZ">     30.51902766 </i>
    <i name="ewald">   7974.06841178 </i>
    <i name="hartreedc"> -10215.00834964 </i>
    <i name="XCdc">     32.16347310 </i>
    <i name="pawpsdc">   1261.73494216 </i>
    <i name="pawaedc">  -1176.76784633 </i>
    <i name="eentropy">      0.00000000 </i>
    <i name="bandstr">   -466.58522247 </i>
    <i name="atom">   2505.77835381 </i>
    <i name="e_fr_energy">    -54.09720993 </i>
    <i name="e_wo_entrp">    -54.09720993 </i>
    <i name="e_0_energy">    -54.09720993 </i>
   </energy>
  </scstep>
  <structure>
   <crystal>
    <varray name="basis" >
     <v>       5.98704169       0.00000003      -0.00000000 </v>
     <v>       2.99352052       5.18492999      -0.00000000 </v>
     <v>      -0.00000000       0.00000000      21.44792268 </v>
    </varray>
    <i name="volume">    665.79482100 </i>
    <varray name="rec_basis" >
     <v>       0.16702740      -0.09643331       0.00000000 </v>
     <v>      -0.00000000       0.19286664      -0.00000000 </v>
     <v>       0.00000000       0.00000000       0.04662456 </v>
    </varray>
   </crystal>
   <varray name="positions" >
    <v>       0.33333300       0.33333300       0.49992500 </v>
    <v>       0.66666700       0.66666700       0.50007500 </v>
    <v>      -0.00000000      -0.00000000       0.44424429 </v>
    <v>       0.00000000       0.00000000       0.55178400 </v>
    <v>       0.62782957       0.00015193       0.57064741 </v>
    <v>       0.00015193       0.37201950       0.57064741 </v>
    <v>       0.37201950       0.62782957       0.57064741 </v>
    <v>       0.36028003       0.99984451       0.43075394 </v>
    <v>       0.99984451       0.63987447       0.43075394 </v>
    <v>       0.63987447       0.36028003       0.43075394 </v>
   </varray>
  </structure>
  <varray name="forces" >
   <v>      -0.00000000       0.00000000       0.07248151 </v>
   <v>      -0.00000000      -0.00000000       0.05433335 </v>
   <v>      -0.00000000       0.00000000      -0.00207705 </v>
   <v>      -0.00000000      -0.00000000      -0.01783127 </v>
   <v>      -0.01658074       0.00022091       0.02633685 </v>
   <v>       0.00848169       0.01424889       0.02633685 </v>
   <v>       0.00809906      -0.01446980       0.02633685 </v>
   <v>      -0.03022839       0.00165128      -0.06197236 </v>
   <v>       0.01654424       0.02535292      -0.06197236 </v>
   <v>       0.01368415      -0.02700420      -0.06197236 </v>
  </varray>
  <varray name="stress" >
   <v>       0.74750491      -0.00000079      -0.00000000 </v>
   <v>       0.00000071       0.74750485       0.00000000 </v>
   <v>       0.00000000       0.00000000       0.73887879 </v>
  </varray>
  <energy>
   <i name="e_fr_energy">    -54.09720993 </i>
   <i name="e_wo_entrp">    -54.09720993 </i>
   <i name="e_0_energy">      0.00000000 </i>
  </energy>
  <time name="totalsc">  299.66  300.79</time>
  <eigenvalues>
   <array>
    <dimension dim="1">band</dimension>
    <dimension dim="2">kpoint</dimension>
    <dimension dim="3">spin</dimension>
    <field>eigene</field>
    <field>occ</field>
    <set>
     <set comment="spin 1">
      <set comment="kpoint 1">
       <r>  -17.8725    1.0000 </r>
       <r>  -16.4462    1.0000 </r>
       <r>  -15.4327    1.0000 </r>
       <r>  -15.4326    1.0000 </r>
       <r>  -14.9814    1.0000 </r>
       <r>  -14.9813    1.0000 </r>
       <r>  -12.7891    1.0000 </r>
       <r>  -10.3108    1.0000 </r>
       <r>   -8.6549    1.0000 </r>
       <r>   -8.6549    1.0000 </r>
       <r>   -8.1904    1.0000 </r>
       <r>   -7.8540    1.0000 </r>
       <r>   -7.8540    1.0000 </r>
       <r>   -7.6391    1.0000 </r>
       <r>   -6.3561    1.0000 </r>
       <r>   -5.8309    1.0000 </r>
       <r>   -5.8309    1.0000 </r>
       <r>   -5.4953    1.0000 </r>
       <r>   -5.4953    1.0000 </r>
       <r>   -5.1865    1.0000 </r>
       <r>   -4.7866    1.0000 </r>
       <r>   -4.7866    1.0000 </r>
       <r>   -4.7470    1.0000 </r>
       <r>   -3.7457    1.0000 </r>
       <r>   -3.7457    1.0000 </r>
       <r>   -3.6149    1.0000 </r>
       <r>   -3.6149    1.0000 </r>
[...]
        <r>  0.0046  0.0008  0.0047  0.0430  0.0000  0.0000  0.0000  0.0000  0.0000 </r>
        <r>  0.0017  0.0266  0.0061  0.0089  0.0000  0.0000  0.0000  0.0000  0.0000 </r>
        <r>  0.0047  0.0283  0.0046  0.0155  0.0000  0.0000  0.0000  0.0000  0.0000 </r>
       </set>
       <set comment="band 30">
        <r>  0.0000  0.0004  0.0000  0.0001  0.1418  0.0216  0.0153  0.0206  0.2387 </r>
        <r>  0.0000  0.0002  0.0000  0.0002  0.1613  0.0157  0.0160  0.0263  0.2168 </r>
        <r>  0.0000  0.0003  0.0000  0.0008  0.0000  0.0000  0.0000  0.0000  0.0000 </r>
        <r>  0.0000  0.0001  0.0000  0.0003  0.0000  0.0000  0.0000  0.0000  0.0001 </r>
        <r>  0.0002  0.0047  0.0010  0.0001  0.0000  0.0000  0.0000  0.0000  0.0000 </r>
        <r>  0.0000  0.0007  0.0000  0.0020  0.0000  0.0000  0.0000  0.0000  0.0000 </r>
        <r>  0.0002  0.0009  0.0010  0.0038  0.0000  0.0000  0.0000  0.0000  0.0000 </r>
        <r>  0.0000  0.0029  0.0010  0.0003  0.0000  0.0000  0.0000  0.0000  0.0000 </r>
        <r>  0.0000  0.0009  0.0000  0.0028  0.0000  0.0000  0.0000  0.0000  0.0000 </r>
        <r>  0.0000  0.0012  0.0010  0.0020  0.0000  0.0000  0.0000  0.0000  0.0000 </r>
       </set>
       <set comment="band 31">
        <r>  0.0009  0.0003  0.0001  0.0003  0.0662  0.0042  0.2303  0.0027  0.0821 </r>
        <r>  0.0009  0.0002  0.0001  0.0005  0.0481  0.0056  0.2274  0.0012  0.1026 </r>
        <r>  0.0036  0.0070  0.0032  0.0023  0.0000  0.0000  0.0000  0.0000  0.0000 </r>
        <r>  0.0108  0.0028  0.0015  0.0009  0.0004  0.0002  0.0002  0.0001  0.0001 </r>
        <r>  0.0001  0.0022  0.0005  0.0080  0.0000  0.0000  0.0000  0.0000  0.0000 </r>
        <r>  0.0013  0.0009  0.0053  0.0003  0.0000  0.0000  0.0000  0.0000  0.0000 </r>
        <r>  0.0001  0.0038  0.0004  0.0064  0.0000  0.0000  0.0000  0.0000  0.0000 </r>
        <r>  0.0000  0.0010  0.0011  0.0023  0.0000  0.0000  0.0000  0.0000  0.0000 </r>
        <r>  0.0019  0.0023  0.0048  0.0008  0.0000  0.0000  0.0000  0.0000  0.0000 </r>
        <r>  0.0000  0.0022  0.0011  0.0011  0.0000  0.0000  0.0000  0.0000  0.0000 </r>
       </set>
       <set comment="band 32">
        <r>  0.0022  0.0003  0.0003  0.0003  0.1727  0.0021  0.1877  0.0018  0.0490 </r>
        <r>  0.0022  0.0000  0.0003  0.0005  0.1203  0.0018  0.1900  0.0020  0.0994 </r>
        <r>  0.0000  0.0035  0.0000  0.0103  0.0000  0.0000  0.0000  0.0000  0.0000 </r>
        <r>  0.0000  0.0026  0.0000  0.0077  0.0000  0.0000  0.0000  0.0001  0.0001 </r>
        <r>  0.0011  0.0034  0.0031  0.0007  0.0000  0.0000  0.0000  0.0000  0.0000 </r>
        <r>  0.0000  0.0006  0.0000  0.0019  0.0000  0.0000  0.0000  0.0000  0.0000 </r>
        <r>  0.0011  0.0022  0.0030  0.0019  0.0000  0.0000  0.0000  0.0000  0.0000 </r>
        <r>  0.0017  0.0016  0.0013  0.0009  0.0000  0.0000  0.0000  0.0000  0.0000 </r>
        <r>  0.0000  0.0006  0.0000  0.0018  0.0000  0.0000  0.0000  0.0000  0.0000 </r>
        <r>  0.0017  0.0003  0.0013  0.0022  0.0000  0.0000  0.0000  0.0000  0.0000 </r>
       </set>
       <set comment="band 33">
        <r>  0.0007  0.0000  0.0003  0.0001  0.0841  0.0495  0.0194  0.0435  0.0551 </r>
        <r>  0.0007  0.0001  0.0003  0.0000  0.0995  0.0237  0.0195  0.0686  0.0410 </r>
        <r>  0.0084  0.0020  0.0241  0.0007  0.0000  0.0000  0.0000  0.0000  0.0000 </r>
        <r>  0.0306  0.0010  0.0230  0.0003  0.0001  0.0000  0.0030  0.0000  0.0000 </r>
        <r>  0.0033  0.0012  0.0057  0.0123  0.0000  0.0000  0.0000  0.0000  0.0000 </r>
        <r>  0.0046  0.0145  0.0002  0.0049  0.0000  0.0000  0.0000  0.0000  0.0000 </r>
        <r>  0.0033  0.0062  0.0056  0.0072  0.0000  0.0000  0.0000  0.0000  0.0000 </r>
        <r>  0.0022  0.0012  0.0032  0.0006  0.0000  0.0000  0.0000  0.0000  0.0000 </r>
        <r>  0.0058  0.0033  0.0010  0.0011  0.0000  0.0000  0.0000  0.0000  0.0000 </r>
        <r>  0.0022  0.0002  0.0032  0.0017  0.0000  0.0000  0.0000  0.0000  0.0000 </r>
       </set>
       <set comment="band 34">
        <r>  0.0006  0.0004  0.0018  0.0001  0.0028  0.1610  0.0586  0.0583  0.0064 </r>
        <r>  0.0006  0.0001  0.0018  0.0004  0.0036  0.1514  0.0588  0.0675  0.0056 </r>
        <r>  0.0000  0.0046  0.0000  0.0137  0.0000  0.0000  0.0000  0.0000  0.0000 </r>
        <r>  0.0000  0.0031  0.0000  0.0092  0.0014  0.0002  0.0000  0.0006  0.0041 </r>
        <r>  0.0039  0.0064  0.0064  0.0087  0.0000  0.0000  0.0000  0.0000  0.0000 </r>
        <r>  0.0000  0.0012  0.0000  0.0035  0.0000  0.0000  0.0000  0.0000  0.0000 </r>
        <r>  0.0039  0.0032  0.0065  0.0119  0.0000  0.0000  0.0000  0.0000  0.0000 </r>
        <r>  0.0056  0.0013  0.0071  0.0125  0.0000  0.0000  0.0000  0.0000  0.0000 </r>
        <r>  0.0000  0.0009  0.0000  0.0027  0.0000  0.0000  0.0000  0.0000  0.0000 </r>
        <r>  0.0056  0.0070  0.0072  0.0068  0.0000  0.0000  0.0000  0.0000  0.0000 </r>
       </set>
       <set comment="band 35">
        <r>  0.0008  0.0001  0.0008  0.0000  0.0537  0.0920  0.0173  0.1413  0.0114 </r>
        <r>  0.0008  0.0001  0.0008  0.0001  0.0318  0.1078  0.0180  0.1225  0.0332 </r>
        <r>  0.0021  0.0064  0.0012  0.0020  0.0000  0.0000  0.0000  0.0000  0.0000 </r>
        <r>  0.0036  0.0023  0.0008  0.0008  0.0014  0.0006  0.0004  0.0002  0.0005 </r>
        <r>  0.0027  0.0095  0.0062  0.0005  0.0000  0.0000  0.0000  0.0000  0.0000 </r>
        <r>  0.0045  0.0216  0.0133  0.0073  0.0000  0.0000  0.0000  0.0000  0.0000 </r>
        <r>  0.0025  0.0042  0.0060  0.0054  0.0000  0.0000  0.0000  0.0000  0.0000 </r>
        <r>  0.0011  0.0046  0.0026  0.0003  0.0000  0.0000  0.0000  0.0000  0.0000 </r>
        <r>  0.0026  0.0329  0.0098  0.0106  0.0000  0.0000  0.0000  0.0000  0.0000 </r>
        <r>  0.0011  0.0025  0.0026  0.0029  0.0000  0.0000  0.0000  0.0000  0.0000 </r>
       </set>
       <set comment="band 36">
        <r>  0.0005  0.0002  0.0000  0.0002  0.0028  0.0585  0.0075  0.2151  0.0340 </r>
        <r>  0.0005  0.0001  0.0000  0.0003  0.0175  0.1011  0.0070  0.1753  0.0198 </r>
        <r>  0.0000  0.0007  0.0000  0.0023  0.0000  0.0000  0.0000  0.0000  0.0000 </r>
        <r>  0.0000  0.0009  0.0000  0.0026  0.0001  0.0001  0.0000  0.0002  0.0004 </r>
        <r>  0.0035  0.0211  0.0023  0.0007  0.0000  0.0000  0.0000  0.0000  0.0000 </r>
        <r>  0.0000  0.0082  0.0000  0.0239  0.0000  0.0000  0.0000  0.0000  0.0000 </r>
        <r>  0.0036  0.0027  0.0025  0.0196  0.0000  0.0000  0.0000  0.0000  0.0000 </r>
        <r>  0.0025  0.0294  0.0016  0.0009  0.0000  0.0000  0.0000  0.0000  0.0000 </r>
        <r>  0.0000  0.0051  0.0000  0.0162  0.0000  0.0000  0.0000  0.0000  0.0000 </r>
        <r>  0.0026  0.0042  0.0016  0.0258  0.0000  0.0000  0.0000  0.0000  0.0000 </r>
       </set>
       <set comment="band 37">
        <r>  0.0060  0.0004  0.0038  0.0009  0.0140  0.0225  0.0156  0.0097  0.0051 </r>
        <r>  0.0060  0.0004  0.0038  0.0009  0.0019  0.0257  0.0154  0.0066  0.0172 </r>
        <r>  0.0001  0.0737  0.0041  0.0247  0.0000  0.0000  0.0000  0.0000  0.0000 </r>
        <r>  0.0050  0.0205  0.0008  0.0069  0.0023  0.0057  0.0000  0.0019  0.0008 </r>
        <r>  0.0007  0.0017  0.0027  0.0023  0.0000  0.0000  0.0000  0.0000  0.0000 </r>
        <r>  0.0079  0.0187  0.0015  0.0062  0.0000  0.0000  0.0000  0.0000  0.0000 </r>
        <r>  0.0007  0.0017  0.0027  0.0023  0.0000  0.0000  0.0000  0.0000  0.0000 </r>
        <r>  0.0036  0.0127  0.0030  0.0189  0.0000  0.0000  0.0000  0.0000  0.0000 </r>
        <r>  0.0240  0.0331  0.0102  0.0110  0.0000  0.0000  0.0000  0.0000  0.0000 </r>
        <r>  0.0036  0.0062  0.0030  0.0252  0.0000  0.0000  0.0000  0.0000  0.0000 </r>
       </set>
       <set comment="band 38">
        <r>  0.0005  0.0007  0.0007  0.0009  0.0378  0.0935  0.0032  0.0602  0.0227 </r>
        <r>  0.0005  0.0003  0.0007  0.0012  0.0379  0.1062  0.0033  0.0488  0.0227 </r>
        <r>  0.0070  0.0057  0.0321  0.0019  0.0000  0.0000  0.0000  0.0000  0.0000 </r>
        <r>  0.0362  0.0038  0.0265  0.0012  0.0004  0.0005  0.0033  0.0002  0.0001 </r>
        <r>  0.0021  0.0006  0.0016  0.0410  0.0000  0.0000  0.0000  0.0000  0.0000 </r>
        <r>  0.0018  0.0182  0.0005  0.0062  0.0000  0.0000  0.0000  0.0000  0.0000 </r>
        <r>  0.0021  0.0269  0.0016  0.0147  0.0000  0.0000  0.0000  0.0000  0.0000 </r>
        <r>  0.0008  0.0008  0.0141  0.0160  0.0000  0.0000  0.0000  0.0000  0.0000 </r>
        <r>  0.0025  0.0228  0.0060  0.0077  0.0000  0.0000  0.0000  0.0000  0.0000 </r>
        <r>  0.0008  0.0126  0.0142  0.0042  0.0000  0.0000  0.0000  0.0000  0.0000 </r>
       </set>
       <set comment="band 39">
        <r>  0.0059  0.0016  0.0020  0.0010  0.0128  0.0571  0.0096  0.0019  0.0109 </r>
        <r>  0.0059  0.0013  0.0020  0.0013  0.0211  0.0242  0.0095  0.0348  0.0025 </r>
        <r>  0.0000  0.0210  0.0000  0.0627  0.0000  0.0000  0.0000  0.0000  0.0000 </r>
        <r>  0.0000  0.0053  0.0000  0.0158  0.0003  0.0021  0.0000  0.0062  0.0008 </r>
        <r>  0.0037  0.0161  0.0013  0.0090  0.0000  0.0000  0.0000  0.0000  0.0000 </r>
        <r>  0.0000  0.0015  0.0000  0.0046  0.0000  0.0000  0.0000  0.0000  0.0000 </r>
        <r>  0.0037  0.0209  0.0013  0.0042  0.0000  0.0000  0.0000  0.0000  0.0000 </r>
        <r>  0.0088  0.0244  0.0019  0.0461  0.0000  0.0000  0.0000  0.0000  0.0000 </r>
        <r>  0.0000  0.0102  0.0000  0.0307  0.0000  0.0000  0.0000  0.0000  0.0000 </r>
        <r>  0.0088  0.0699  0.0019  0.0008  0.0000  0.0000  0.0000  0.0000  0.0000 </r>
       </set>
       <set comment="band 40">
        <r>  0.0048  0.0031  0.0015  0.0033  0.0081  0.0168  0.0030  0.0041  0.0483 </r>
        <r>  0.0048  0.0052  0.0015  0.0013  0.0438  0.0082  0.0030  0.0127  0.0129 </r>
        <r>  0.0249  0.0067  0.0282  0.0022  0.0000  0.0000  0.0000  0.0000  0.0000 </r>
        <r>  0.0097  0.0216  0.0820  0.0071  0.0029  0.0002  0.0071  0.0001  0.0009 </r>
        <r>  0.0001  0.0009  0.0127  0.0010  0.0000  0.0000  0.0000  0.0000  0.0000 </r>
        <r>  0.0125  0.0037  0.0340  0.0013  0.0000  0.0000  0.0000  0.0000  0.0000 </r>
        <r>  0.0001  0.0002  0.0127  0.0018  0.0000  0.0000  0.0000  0.0000  0.0000 </r>
        <r>  0.0004  0.0007  0.0086  0.0028  0.0000  0.0000  0.0000  0.0000  0.0000 </r>
        <r>  0.0014  0.0021  0.0125  0.0007  0.0000  0.0000  0.0000  0.0000  0.0000 </r>
        <r>  0.0004  0.0011  0.0086  0.0023  0.0000  0.0000  0.0000  0.0000  0.0000 </r>
       </set>
       <set comment="band 41">
        <r>  0.0174  0.0022  0.0011  0.0003  0.0299  0.0059  0.0188  0.0145  0.0014 </r>
        <r>  0.0167  0.0007  0.0010  0.0017  0.0034  0.0064  0.0183  0.0148  0.0289 </r>
        <r>  0.0066  0.0192  0.0067  0.0063  0.0000  0.0000  0.0000  0.0000  0.0000 </r>
        <r>  0.0034  0.0787  0.0192  0.0260  0.0122  0.0004  0.0028  0.0001  0.0040 </r>
        <r>  0.0034  0.0039  0.0090  0.0012  0.0000  0.0000  0.0000  0.0000  0.0000 </r>
        <r>  0.0164  0.0262  0.0067  0.0087  0.0000  0.0000  0.0000  0.0000  0.0000 </r>
        <r>  0.0035  0.0003  0.0089  0.0047  0.0000  0.0000  0.0000  0.0000  0.0000 </r>
        <r>  0.0006  0.0025  0.0013  0.0011  0.0000  0.0000  0.0000  0.0000  0.0000 </r>
        <r>  0.0063  0.0055  0.0098  0.0019  0.0000  0.0000  0.0000  0.0000  0.0000 </r>
        <r>  0.0006  0.0021  0.0012  0.0016  0.0000  0.0000  0.0000  0.0000  0.0000 </r>
       </set>
       <set comment="band 42">
        <r>  0.0097  0.0003  0.0013  0.0006  0.0107  0.0089  0.0080  0.0228  0.0161 </r>
        <r>  0.0104  0.0009  0.0013  0.0000  0.0085  0.0150  0.0087  0.0159  0.0173 </r>
        <r>  0.0000  0.0083  0.0000  0.0253  0.0000  0.0000  0.0000  0.0000  0.0000 </r>
        <r>  0.0000  0.0305  0.0000  0.0925  0.0042  0.0002  0.0000  0.0005  0.0129 </r>
        <r>  0.0102  0.0105  0.0007  0.0293  0.0000  0.0000  0.0000  0.0000  0.0000 </r>
        <r>  0.0000  0.0067  0.0000  0.0202  0.0000  0.0000  0.0000  0.0000  0.0000 </r>
        <r>  0.0101  0.0397  0.0007  0.0003  0.0000  0.0000  0.0000  0.0000  0.0000 </r>
        <r>  0.0012  0.0023  0.0015  0.0091  0.0000  0.0000  0.0000  0.0000  0.0000 </r>
        <r>  0.0000  0.0028  0.0000  0.0080  0.0000  0.0000  0.0000  0.0000  0.0000 </r>
        <r>  0.0012  0.0103  0.0015  0.0010  0.0000  0.0000  0.0000  0.0000  0.0000 </r>
       </set>
       <set comment="band 43">
        <r>  0.0004  0.0020  0.0011  0.0026  0.0008  0.0010  0.0027  0.0008  0.0031 </r>
        <r>  0.0004  0.0007  0.0011  0.0039  0.0034  0.0011  0.0027  0.0006  0.0005 </r>
        <r>  0.0013  0.0012  0.0066  0.0004  0.0000  0.0000  0.0000  0.0000  0.0000 </r>
        <r>  0.0068  0.0008  0.0028  0.0003  0.0002  0.0002  0.0079  0.0001  0.0001 </r>
        <r>  0.0005  0.0000  0.0016  0.0013  0.0000  0.0000  0.0000  0.0000  0.0000 </r>
        <r>  0.0019  0.0029  0.0029  0.0009  0.0000  0.0000  0.0000  0.0000  0.0000 </r>
        <r>  0.0005  0.0008  0.0015  0.0006  0.0000  0.0000  0.0000  0.0000  0.0000 </r>
        <r>  0.0007  0.0004  0.0027  0.0025  0.0000  0.0000  0.0000  0.0000  0.0000 </r>
        <r>  0.0032  0.0022  0.0032  0.0007  0.0000  0.0000  0.0000  0.0000  0.0000 </r>
        <r>  0.0007  0.0012  0.0028  0.0017  0.0000  0.0000  0.0000  0.0000  0.0000 </r>
       </set>
       <set comment="band 44">
        <r>  0.0025  0.0033  0.0031  0.0008  0.0036  0.0009  0.0004  0.0006  0.0048 </r>
        <r>  0.0026  0.0021  0.0032  0.0020  0.0037  0.0008  0.0004  0.0007  0.0046 </r>
        <r>  0.0000  0.0006  0.0000  0.0017  0.0000  0.0000  0.0000  0.0000  0.0000 </r>
        <r>  0.0000  0.0017  0.0000  0.0052  0.0002  0.0001  0.0000  0.0004  0.0006 </r>
        <r>  0.0005  0.0007  0.0027  0.0022  0.0000  0.0000  0.0000  0.0000  0.0000 </r>
        <r>  0.0000  0.0004  0.0000  0.0012  0.0000  0.0000  0.0000  0.0000  0.0000 </r>
        <r>  0.0005  0.0025  0.0027  0.0004  0.0000  0.0000  0.0000  0.0000  0.0000 </r>
        <r>  0.0026  0.0009  0.0119  0.0016  0.0000  0.0000  0.0000  0.0000  0.0000 </r>
        <r>  0.0000  0.0006  0.0000  0.0019  0.0000  0.0000  0.0000  0.0000  0.0000 </r>
        <r>  0.0026  0.0024  0.0119  0.0000  0.0000  0.0000  0.0000  0.0000  0.0000 </r>
       </set>
       <set comment="band 45">
        <r>  0.0102  0.0010  0.0096  0.0015  0.0064  0.0008  0.0066  0.0000  0.0116 </r>
        <r>  0.0103  0.0020  0.0097  0.0003  0.0059  0.0004  0.0068  0.0005  0.0118 </r>
        <r>  0.0002  0.0025  0.0001  0.0008  0.0000  0.0000  0.0000  0.0000  0.0000 </r>
        <r>  0.0009  0.0127  0.0058  0.0042  0.0044  0.0027  0.0005  0.0009  0.0015 </r>
        <r>  0.0004  0.0032  0.0006  0.0007  0.0000  0.0000  0.0000  0.0000  0.0000 </r>
        <r>  0.0010  0.0036  0.0057  0.0012  0.0000  0.0000  0.0000  0.0000  0.0000 </r>
        <r>  0.0003  0.0004  0.0005  0.0036  0.0000  0.0000  0.0000  0.0000  0.0000 </r>
        <r>  0.0005  0.0010  0.0009  0.0008  0.0000  0.0000  0.0000  0.0000  0.0000 </r>
        <r>  0.0008  0.0011  0.0078  0.0003  0.0000  0.0000  0.0000  0.0000  0.0000 </r>
        <r>  0.0005  0.0001  0.0008  0.0018  0.0000  0.0000  0.0000  0.0000  0.0000 </r>
       </set>
       <set comment="band 46">
        <r>  0.0013  0.0004  0.0005  0.0019  0.0019  0.0005  0.0061  0.0004  0.0025 </r>
        <r>  0.0011  0.0019  0.0004  0.0004  0.0017  0.0006  0.0059  0.0002  0.0031 </r>
        <r>  0.0000  0.0002  0.0000  0.0007  0.0000  0.0000  0.0000  0.0000  0.0000 </r>
        <r>  0.0000  0.0012  0.0000  0.0036  0.0004  0.0002  0.0000  0.0007  0.0012 </r>
        <r>  0.0029  0.0013  0.0103  0.0023  0.0000  0.0000  0.0000  0.0000  0.0000 </r>
        <r>  0.0000  0.0007  0.0000  0.0023  0.0000  0.0000  0.0000  0.0000  0.0000 </r>
        <r>  0.0029  0.0031  0.0105  0.0003  0.0000  0.0000  0.0000  0.0000  0.0000 </r>
        <r>  0.0008  0.0005  0.0004  0.0013  0.0000  0.0000  0.0000  0.0000  0.0000 </r>
        <r>  0.0000  0.0004  0.0000  0.0013  0.0000  0.0000  0.0000  0.0000  0.0000 </r>
        <r>  0.0008  0.0006  0.0004  0.0012  0.0000  0.0000  0.0000  0.0000  0.0000 </r>
       </set>
       <set comment="band 47">
        <r>  0.0339  0.0022  0.0011  0.0036  0.0019  0.0005  0.0005  0.0009  0.0010 </r>
        <r>  0.0341  0.0028  0.0011  0.0030  0.0000  0.0011  0.0005  0.0003  0.0029 </r>
        <r>  0.0010  0.0099  0.0086  0.0033  0.0000  0.0000  0.0000  0.0000  0.0000 </r>
        <r>  0.0002  0.0027  0.0089  0.0009  0.0005  0.0013  0.0030  0.0004  0.0002 </r>
        <r>  0.0005  0.0011  0.0040  0.0000  0.0000  0.0000  0.0000  0.0000  0.0000 </r>
        <r>  0.0004  0.0009  0.0155  0.0003  0.0000  0.0000  0.0000  0.0000  0.0000 </r>
        <r>  0.0005  0.0002  0.0041  0.0010  0.0000  0.0000  0.0000  0.0000  0.0000 </r>
        <r>  0.0004  0.0020  0.0047  0.0015  0.0000  0.0000  0.0000  0.0000  0.0000 </r>
        <r>  0.0004  0.0034  0.0033  0.0011  0.0000  0.0000  0.0000  0.0000  0.0000 </r>
        <r>  0.0004  0.0003  0.0047  0.0033  0.0000  0.0000  0.0000  0.0000  0.0000 </r>
       </set>
       <set comment="band 48">
        <r>  0.0015  0.0015  0.0115  0.0012  0.0009  0.0006  0.0036  0.0005  0.0074 </r>
        <r>  0.0016  0.0023  0.0115  0.0003  0.0068  0.0009  0.0035  0.0002  0.0015 </r>
        <r>  0.0020  0.0057  0.0071  0.0019  0.0000  0.0000  0.0000  0.0000  0.0000 </r>
        <r>  0.0003  0.0003  0.0154  0.0001  0.0033  0.0097  0.0001  0.0033  0.0011 </r>
        <r>  0.0004  0.0002  0.0011  0.0019  0.0000  0.0000  0.0000  0.0000  0.0000 </r>
        <r>  0.0017  0.0010  0.0028  0.0003  0.0000  0.0000  0.0000  0.0000  0.0000 </r>
        <r>  0.0004  0.0019  0.0011  0.0002  0.0000  0.0000  0.0000  0.0000  0.0000 </r>
        <r>  0.0003  0.0001  0.0014  0.0012  0.0000  0.0000  0.0000  0.0000  0.0000 </r>
        <r>  0.0001  0.0016  0.0048  0.0005  0.0000  0.0000  0.0000  0.0000  0.0000 </r>
        <r>  0.0003  0.0007  0.0014  0.0005  0.0000  0.0000  0.0000  0.0000  0.0000 </r>
       </set>
      </set>
     </set>
    </set>
   </array>
  </projected>
 </calculation>
 <structure name="finalpos" >
  <crystal>
   <varray name="basis" >
    <v>       5.98704169       0.00000003      -0.00000000 </v>
    <v>       2.99352052       5.18492999      -0.00000000 </v>
    <v>      -0.00000000       0.00000000      21.44792268 </v>
   </varray>
   <i name="volume">    665.79482100 </i>
   <varray name="rec_basis" >
    <v>       0.16702740      -0.09643331       0.00000000 </v>
    <v>      -0.00000000       0.19286664      -0.00000000 </v>
    <v>       0.00000000       0.00000000       0.04662456 </v>
   </varray>
  </crystal>
  <varray name="positions" >
   <v>       0.33333300       0.33333300       0.49992500 </v>
   <v>       0.66666700       0.66666700       0.50007500 </v>
   <v>      -0.00000000      -0.00000000       0.44424429 </v>
   <v>       0.00000000       0.00000000       0.55178400 </v>
   <v>       0.62782957       0.00015193       0.57064741 </v>
   <v>       0.00015193       0.37201950       0.57064741 </v>
   <v>       0.37201950       0.62782957       0.57064741 </v>
   <v>       0.36028003       0.99984451       0.43075394 </v>
   <v>       0.99984451       0.63987447       0.43075394 </v>
   <v>       0.63987447       0.36028003       0.43075394 </v>
  </varray>
  <varray name="selective"  type="logical" >
   <v type="logical" >  F  F  F </v>
   <v type="logical" >  F  F  F </v>
   <v type="logical" >  T  T  T </v>
   <v type="logical" >  F  F  F </v>
   <v type="logical" >  T  T  T </v>
   <v type="logical" >  T  T  T </v>
   <v type="logical" >  T  T  T </v>
   <v type="logical" >  T  T  T </v>
   <v type="logical" >  T  T  T </v>
   <v type="logical" >  T  T  T </v>
  </varray>
  <nose>
   <v>      -3.00000000       0.00000000       0.00010000       0.00010000 </v>
  </nose>
 </structure>
</modeling>
