unknown system                          
           1
     6.907777   -0.000000    0.000000
     3.453888    5.982310    0.000000
     0.000000    0.000000   23.444588
   Cr   P    Ge   S 
   2   1   1   6
Direct configuration=     1
   0.33333300  0.33333300  0.49992500
   0.66666700  0.66666700  0.50007500
   0.00000000  0.00000000  0.44821600
   0.00000000  0.00000000  0.55178400
   0.62635700  0.00042000  0.57375200
   0.00042000  0.37322400  0.57375200
   0.37322400  0.62635700  0.57375200
   0.37364300  0.99958000  0.42624800
   0.99958000  0.62677600  0.42624800
   0.62677600  0.37364300  0.42624800
unknown system                          
           1
     6.017565    0.000000    0.000000
     3.008782    5.211364    0.000000
     0.000000    0.000000   21.533249
   Cr   P    Ge   S 
   2   1   1   6
Direct configuration=     2
   0.33333300  0.33333300  0.49992500
   0.66666700  0.66666700  0.50007500
  -0.00000000 -0.00000000  0.44662292
   0.00000000  0.00000000  0.55178400
   0.63234396  0.00038213  0.57022514
   0.00038213  0.36727491  0.57022514
   0.36727491  0.63234396  0.57022514
   0.36697078  0.99960748  0.42991738
   0.99960748  0.63342074  0.42991738
   0.63342074  0.36697078  0.42991738
unknown system                          
           1
     5.993339    0.000000    0.000000
     2.996669    5.190384    0.000000
     0.000000    0.000000   21.481234
   Cr   P    Ge   S 
   2   1   1   6
Direct configuration=     3
   0.33333300  0.33333300  0.49992500
   0.66666700  0.66666700  0.50007500
  -0.00000000 -0.00000000  0.44657572
   0.00000000  0.00000000  0.55178400
   0.63253099  0.00038095  0.57012064
   0.00038095  0.36708906  0.57012064
   0.36708906  0.63253099  0.57012064
   0.36676235  0.99960834  0.43002610
   0.99960834  0.63362832  0.43002610
   0.63362832  0.36676235  0.43002610
unknown system                          
           1
     5.980528    0.000000   -0.000000
     2.990264    5.179289   -0.000000
     0.000000    0.000000   21.595038
   Cr   P    Ge   S 
   2   1   1   6
Direct configuration=     4
   0.33333300  0.33333300  0.49992500
   0.66666700  0.66666700  0.50007500
  -0.00000000 -0.00000000  0.44390346
   0.00000000  0.00000000  0.55178400
   0.63032196  0.00030464  0.57044299
   0.00030464  0.36937441  0.57044299
   0.36937441  0.63032196  0.57044299
   0.36332860  0.99969817  0.43060120
   0.99969817  0.63697223  0.43060120
   0.63697223  0.36332860  0.43060120
unknown system                          
           1
     5.980109    0.000000   -0.000000
     2.990054    5.178926   -0.000000
     0.000000    0.000000   21.598767
   Cr   P    Ge   S 
   2   1   1   6
Direct configuration=     5
   0.33333300  0.33333300  0.49992500
   0.66666700  0.66666700  0.50007500
  -0.00000000 -0.00000000  0.44381635
   0.00000000  0.00000000  0.55178400
   0.63024941  0.00030213  0.57045350
   0.00030213  0.36944946  0.57045350
   0.36944946  0.63024941  0.57045350
   0.36321584  0.99970112  0.43061994
   0.99970112  0.63708204  0.43061994
   0.63708204  0.36321584  0.43061994
unknown system                          
           1
     5.995557    0.000000   -0.000000
     2.997778    5.192305    0.000000
     0.000000    0.000000   21.556734
   Cr   P    Ge   S 
   2   1   1   6
Direct configuration=     6
   0.33333300  0.33333300  0.49992500
   0.66666700  0.66666700  0.50007500
  -0.00000000 -0.00000000  0.44398978
   0.00000000  0.00000000  0.55178400
   0.62856846  0.00027077  0.57056465
   0.00027077  0.37116177  0.57056465
   0.37116177  0.62856846  0.57056465
   0.36210029  0.99979239  0.43076465
   0.99979239  0.63810632  0.43076465
   0.63810632  0.36210029  0.43076465
unknown system                          
           1
     5.999877    0.000000    0.000000
     2.999938    5.196046    0.000000
    -0.000000    0.000000   21.544981
   Cr   P    Ge   S 
   2   1   1   6
Direct configuration=     7
   0.33333300  0.33333300  0.49992500
   0.66666700  0.66666700  0.50007500
  -0.00000000 -0.00000000  0.44403837
   0.00000000  0.00000000  0.55178400
   0.62809967  0.00026202  0.57059579
   0.00026202  0.37163931  0.57059579
   0.37163931  0.62809967  0.57059579
   0.36178918  0.99981784  0.43080519
   0.99981784  0.63839198  0.43080519
   0.63839198  0.36178918  0.43080519
unknown system                          
           1
     5.993823    0.000000   -0.000000
     2.996911    5.190803    0.000000
    -0.000000    0.000000   21.484171
   Cr   P    Ge   S 
   2   1   1   6
Direct configuration=     8
   0.33333300  0.33333300  0.49992500
   0.66666700  0.66666700  0.50007500
  -0.00000000 -0.00000000  0.44424851
   0.00000000  0.00000000  0.55178400
   0.62789776  0.00020329  0.57057075
   0.00020329  0.37189995  0.57057075
   0.37189995  0.62789776  0.57057075
   0.36093636  0.99984305  0.43087359
   0.99984305  0.63921959  0.43087359
   0.63921959  0.36093636  0.43087359
unknown system                          
           1
     5.992736    0.000000   -0.000000
     2.996367    5.189861    0.000000
    -0.000000    0.000000   21.473251
   Cr   P    Ge   S 
   2   1   1   6
Direct configuration=     9
   0.33333300  0.33333300  0.49992500
   0.66666700  0.66666700  0.50007500
  -0.00000000 -0.00000000  0.44428635
   0.00000000  0.00000000  0.55178400
   0.62786147  0.00019273  0.57056625
   0.00019273  0.37194680  0.57056625
   0.37194680  0.62786147  0.57056625
   0.36078307  0.99984758  0.43088590
   0.99984758  0.63936835  0.43088590
   0.63936835  0.36078307  0.43088590
unknown system                          
           1
     5.987483    0.000000   -0.000000
     2.993741    5.185312   -0.000000
    -0.000000    0.000000   21.449884
   Cr   P    Ge   S 
   2   1   1   6
Direct configuration=    10
   0.33333300  0.33333300  0.49992500
   0.66666700  0.66666700  0.50007500
  -0.00000000 -0.00000000  0.44424755
   0.00000000  0.00000000  0.55178400
   0.62783204  0.00015509  0.57064112
   0.00015509  0.37201387  0.57064112
   0.37201387  0.62783204  0.57064112
   0.36031902  0.99984475  0.43076417
   0.99984475  0.63983524  0.43076417
   0.63983524  0.36031902  0.43076417
unknown system                          
           1
     5.987042    0.000000   -0.000000
     2.993521    5.184930   -0.000000
    -0.000000    0.000000   21.447923
   Cr   P    Ge   S 
   2   1   1   6
Direct configuration=    11
   0.33333300  0.33333300  0.49992500
   0.66666700  0.66666700  0.50007500
  -0.00000000 -0.00000000  0.44424429
   0.00000000  0.00000000  0.55178400
   0.62782957  0.00015193  0.57064741
   0.00015193  0.37201950  0.57064741
   0.37201950  0.62782957  0.57064741
   0.36028003  0.99984451  0.43075394
   0.99984451  0.63987447  0.43075394
   0.63987447  0.36028003  0.43075394
