 vasp.5.4.4.18Apr17-6-g9f103f2a35 (build May  1 2020 15:48:39) complex           
 executed on             LinuxGNU date 2020.07.09  05:09:35
 running on   16 total cores
 distrk:  each k-point on   16 cores,    1 groups
 distr:  one band on NCORES_PER_BAND=   1 cores,   16 groups


--------------------------------------------------------------------------------------------------------


 INCAR:
 POTCAR:   PAW_PBE Mn 06Sep2000                   
 POTCAR:   PAW_PBE Ge 05Jan2001                   
 POTCAR:    PAW_PBE S 17Jan2003                   

 ----------------------------------------------------------------------------- 
|                                                                             |
|           W    W    AA    RRRRR   N    N  II  N    N   GGGG   !!!           |
|           W    W   A  A   R    R  NN   N  II  NN   N  G    G  !!!           |
|           W    W  A    A  R    R  N N  N  II  N N  N  G       !!!           |
|           W WW W  AAAAAA  RRRRR   N  N N  II  N  N N  G  GGG   !            |
|           WW  WW  A    A  R   R   N   NN  II  N   NN  G    G                |
|           W    W  A    A  R    R  N    N  II  N    N   GGGG   !!!           |
|                                                                             |
|      For optimal performance we recommend to set                            |
|        NCORE= 4 - approx SQRT( number of cores)                             |
|      NCORE specifies how many cores store one orbital (NPAR=cpu/NCORE).     |
|      This setting can  greatly improve the performance of VASP for DFT.     |
|      The default,   NCORE=1            might be grossly inefficient         |
|      on modern multi-core architectures or massively parallel machines.     |
|      Do your own testing !!!!                                               |
|      Unfortunately you need to use the default for GW and RPA calculations. |
|      (for HF NCORE is supported but not extensively tested yet)             |
|                                                                             |
 ----------------------------------------------------------------------------- 


 ----------------------------------------------------------------------------- 
|                                                                             |
|  ADVICE TO THIS USER RUNNING 'VASP/VAMP'   (HEAR YOUR MASTER'S VOICE ...):  |
|                                                                             |
|      You have switched on vdW-DFT.                                          |
|      This routine was written and supplied by Jiri Klimes.                  |
|      We recommed that you carefully read and cite the following             |
|      publication                                                            |
|      J. Klimes, D.R. Bowler, A. Michelides                                  |
|        J. Phys.: Cond Matt. 22 022201 (2010)                                |
|      J. Klimes, D.R. Bowler, A. Michelides                                  |
|        Phys. Rev. B. 83, 195131 (2011)                                      |
|      and references therein.                                                |
|                                                                             |
 ----------------------------------------------------------------------------- 

 POTCAR:   PAW_PBE Mn 06Sep2000                   
   VRHFIN =Mn: d6 s1                                                            
   LEXCH  = PE                                                                  
   EATOM  =   416.8732 eV,   30.6393 Ry                                         
                                                                                
   TITEL  = PAW_PBE Mn 06Sep2000                                                
   LULTRA =        F    use ultrasoft PP ?                                      
   IUNSCR =        1    unscreen: 0-lin 1-nonlin 2-no                           
   RPACOR =    2.000    partial core radius                                     
   POMASS =   54.938; ZVAL   =    7.000    mass and valenz                      
   RCORE  =    2.300    outmost cutoff radius                                   
   RWIGS  =    2.500; RWIGS  =    1.323    wigner-seitz radius (au A)           
   ENMAX  =  269.865; ENMIN  =  202.399 eV                                      
   RCLOC  =    1.725    cutoff for local pot                                    
   LCOR   =        T    correct aug charges                                     
   LPAW   =        T    paw PP                                                  
   EAUG   =  500.711                                                            
   DEXC   =    -.071                                                            
   RMAX   =    2.807    core radius for proj-oper                               
   RAUG   =    1.300    factor for augmentation sphere                          
   RDEP   =    2.338    radius for radial grids                                 
   QCUT   =   -4.454; QGAM   =    8.907    optimization parameters              
                                                                                
   Description                                                                  
     l     E      TYP  RCUT    TYP  RCUT                                        
     2   .000     23  2.300                                                     
     2   .000     23  2.300                                                     
     0   .000     23  2.300                                                     
     0   .000     23  2.300                                                     
     1  -.200     23  2.300                                                     
     1  1.500     23  2.300                                                     
     3   .000      7   .000                                                     
  local pseudopotential read in
  partial core-charges read in
  atomic valenz-charges read in
  non local Contribution for L=           2  read in
    real space projection operators read in
  non local Contribution for L=           2  read in
    real space projection operators read in
  non local Contribution for L=           0  read in
    real space projection operators read in
  non local Contribution for L=           0  read in
    real space projection operators read in
  non local Contribution for L=           1  read in
    real space projection operators read in
  non local Contribution for L=           1  read in
    real space projection operators read in
    PAW grid and wavefunctions read in

   number of l-projection  operators is LMAX  =           6
   number of lm-projection operators is LMMAX =          18

 POTCAR:   PAW_PBE Ge 05Jan2001                   
   VRHFIN =Ge: s2p2                                                             
   LEXCH  = PE                                                                  
   EATOM  =   104.9960 eV,    7.7170 Ry                                         
                                                                                
   TITEL  = PAW_PBE Ge 05Jan2001                                                
   LULTRA =        F    use ultrasoft PP ?                                      
   IUNSCR =        1    unscreen: 0-lin 1-nonlin 2-no                           
   RPACOR =    2.170    partial core radius                                     
   POMASS =   72.610; ZVAL   =    4.000    mass and valenz                      
   RCORE  =    2.300    outmost cutoff radius                                   
   RWIGS  =    2.300; RWIGS  =    1.217    wigner-seitz radius (au A)           
   ENMAX  =  173.807; ENMIN  =  130.355 eV                                      
   ICORE  =        3    local potential                                         
   LCOR   =        T    correct aug charges                                     
   LPAW   =        T    paw PP                                                  
   EAUG   =  385.843                                                            
   DEXC   =    -.138                                                            
   RMAX   =    3.497    core radius for proj-oper                               
   RAUG   =    1.300    factor for augmentation sphere                          
   RDEP   =    2.318    radius for radial grids                                 
   QCUT   =   -3.574; QGAM   =    7.148    optimization parameters              
                                                                                
   Description                                                                  
     l     E      TYP  RCUT    TYP  RCUT                                        
     0   .000     23  2.300                                                     
     0   .000     23  2.300                                                     
     1   .000     23  2.300                                                     
     1   .000     23  2.300                                                     
     2   .000     23  2.300                                                     
     3  -.100      7  2.300                                                     
  local pseudopotential read in
  partial core-charges read in
  atomic valenz-charges read in
  non local Contribution for L=           0  read in
    real space projection operators read in
  non local Contribution for L=           0  read in
    real space projection operators read in
  non local Contribution for L=           1  read in
    real space projection operators read in
  non local Contribution for L=           1  read in
    real space projection operators read in
  non local Contribution for L=           2  read in
    real space projection operators read in
    PAW grid and wavefunctions read in

   number of l-projection  operators is LMAX  =           5
   number of lm-projection operators is LMMAX =          13

 POTCAR:    PAW_PBE S 17Jan2003                   
   VRHFIN =S : s2p4                                                             
   LEXCH  = PE                                                                  
   EATOM  =   276.8230 eV,   20.3459 Ry                                         
                                                                                
   TITEL  = PAW_PBE S 17Jan2003                                                 
   LULTRA =        F    use ultrasoft PP ?                                      
   IUNSCR =        1    unscreen: 0-lin 1-nonlin 2-no                           
   RPACOR =    1.500    partial core radius                                     
   POMASS =   32.066; ZVAL   =    6.000    mass and valenz                      
   RCORE  =    1.900    outmost cutoff radius                                   
   RWIGS  =    2.200; RWIGS  =    1.164    wigner-seitz radius (au A)           
   ENMAX  =  280.000; ENMIN  =  194.016 eV                                      
   ICORE  =        2    local potential                                         
   LCOR   =        T    correct aug charges                                     
   LPAW   =        T    paw PP                                                  
   EAUG   =  335.092                                                            
   DEXC   =     .000                                                            
   RMAX   =    2.867    core radius for proj-oper                               
   RAUG   =    1.300    factor for augmentation sphere                          
   RDEP   =    1.954    radius for radial grids                                 
   QCUT   =   -4.360; QGAM   =    8.721    optimization parameters              
                                                                                
   Description                                                                  
     l     E      TYP  RCUT    TYP  RCUT                                        
     0   .000     23  1.900                                                     
     0   .000     23  1.900                                                     
     1   .000     23  1.900                                                     
     1   .000     23  1.900                                                     
     2   .000     23  1.900                                                     
  local pseudopotential read in
  partial core-charges read in
  atomic valenz-charges read in
  non local Contribution for L=           0  read in
    real space projection operators read in
  non local Contribution for L=           0  read in
    real space projection operators read in
  non local Contribution for L=           1  read in
    real space projection operators read in
  non local Contribution for L=           1  read in
    real space projection operators read in
    PAW grid and wavefunctions read in

   number of l-projection  operators is LMAX  =           4
   number of lm-projection operators is LMMAX =           8

 Optimization of the real space projectors (new method)

 maximal supplied QI-value         = 16.25
 optimisation between [QCUT,QGAM] = [ 11.54, 23.24] = [ 37.28,151.24] Ry 
 Optimized for a Real-space Cutoff    1.53 Angstroem

   l    n(q)    QCUT    max X(q) W(low)/X(q) W(high)/X(q)  e(spline) 
   2     10    11.539     4.144    0.87E-05    0.14E-04    0.48E-07
   2     10    11.539    35.116    0.12E-03    0.13E-03    0.25E-06
   0     11    11.539    20.431    0.20E-04    0.18E-05    0.19E-07
   0     11    11.539    61.159    0.37E-04    0.19E-04    0.29E-06
   1     10    11.539     6.695    0.11E-04    0.24E-05    0.29E-07
   1     10    11.539     8.642    0.41E-04    0.18E-04    0.11E-06
 Optimization of the real space projectors (new method)

 maximal supplied QI-value         = 16.25
 optimisation between [QCUT,QGAM] = [ 11.54, 23.24] = [ 37.28,151.24] Ry 
 Optimized for a Real-space Cutoff    1.28 Angstroem

   l    n(q)    QCUT    max X(q) W(low)/X(q) W(high)/X(q)  e(spline) 
   0      9    11.539     8.651    0.22E-04    0.16E-04    0.10E-07
   0      9    11.539    33.192    0.11E-03    0.16E-03    0.65E-07
   1      8    11.539     5.899    0.37E-04    0.28E-04    0.43E-07
   1      8    11.539    27.289    0.22E-03    0.28E-04    0.14E-06
   2      8    11.539     4.673    0.11E-03    0.18E-03    0.58E-07
 Optimization of the real space projectors (new method)

 maximal supplied QI-value         = 19.84
 optimisation between [QCUT,QGAM] = [ 11.51, 23.22] = [ 37.09,150.92] Ry 
 Optimized for a Real-space Cutoff    1.21 Angstroem

   l    n(q)    QCUT    max X(q) W(low)/X(q) W(high)/X(q)  e(spline) 
   0      8    11.508     5.487    0.18E-04    0.22E-05    0.47E-08
   0      8    11.508    85.627    0.96E-04    0.18E-03    0.54E-07
   1      8    11.508     3.530    0.17E-04    0.28E-04    0.21E-07
   1      8    11.508    42.714    0.18E-03    0.63E-04    0.92E-07

 ----------------------------------------------------------------------------- 
|                                                                             |
|  ADVICE TO THIS USER RUNNING 'VASP/VAMP'   (HEAR YOUR MASTER'S VOICE ...):  |
|                                                                             |
|      You enforced a specific xc-type in the INCAR file,                     |
|      a different type was found on the POTCAR file                          |
|          I HOPE YOU KNOW, WHAT YOU ARE  DOING                               |
|                                                                             |
 ----------------------------------------------------------------------------- 

 PAW_PBE Mn 06Sep2000                   :
 energy of atom  1       EATOM= -416.8732
 kinetic energy error for atom=    0.0024 (will be added to EATOM!!)
 PAW_PBE Ge 05Jan2001                   :
 energy of atom  2       EATOM= -104.9960
 kinetic energy error for atom=    0.0002 (will be added to EATOM!!)
  PAW_PBE S 17Jan2003                   :
 energy of atom  3       EATOM= -276.8230
 kinetic energy error for atom=    0.0016 (will be added to EATOM!!)


 POSCAR: Mn2 Ge2 S6                              
  positions in direct lattice
  velocities in cartesian coordinates
  No initial velocities read in
 exchange correlation table for  LEXCH =       42
   RHO(1)=    0.500       N(1)  =     2000
   RHO(2)=  100.500       N(2)  =     4000



--------------------------------------------------------------------------------------------------------


 ion  position               nearest neighbor table
   1  0.333  0.333  0.500-   6 2.78   5 2.78   7 2.78   8 2.78  10 2.78   9 2.78
   2  0.667  0.667  0.500-   9 2.78   8 2.78  10 2.78   5 2.78   7 2.78   6 2.78
   3  0.000  0.000  0.448-   4 2.43   8 2.63  10 2.63   9 2.63
   4  0.000  0.000  0.552-   3 2.43   5 2.63   7 2.63   6 2.63
   5  0.626  0.000  0.574-   4 2.63   1 2.78   2 2.78
   6  0.000  0.373  0.574-   4 2.63   1 2.78   2 2.78
   7  0.373  0.626  0.574-   4 2.63   1 2.78   2 2.78
   8  0.374  1.000  0.426-   3 2.63   2 2.78   1 2.78
   9  1.000  0.627  0.426-   3 2.63   2 2.78   1 2.78
  10  0.627  0.374  0.426-   3 2.63   2 2.78   1 2.78

  LATTYP: Found a hexagonal cell.
 ALAT       =     6.9077769333
 C/A-ratio  =     3.3939410937
  
  Lattice vectors:
  
 A1 = (   3.4538890000,  -5.9823100000,   0.0000000000)
 A2 = (  -6.9077770000,   0.0000000000,   0.0000000000)
 A3 = (   0.0000000000,   0.0000000000, -23.4445880000)


Analysis of symmetry for initial positions (statically):
=====================================================================
 Subroutine PRICEL returns:
 Original cell was already a primitive cell.
 

 Routine SETGRP: Setting up the symmetry group for a 
 hexagonal supercell.


 Subroutine GETGRP returns: Found  6 space group operations
 (whereof  6 operations were pure point group operations)
 out of a pool of 24 trial point group operations.


The static configuration has the point symmetry S_6 .


Analysis of symmetry for dynamics (positions and initial velocities):
=====================================================================
 Subroutine PRICEL returns:
 Original cell was already a primitive cell.
 

 Routine SETGRP: Setting up the symmetry group for a 
 hexagonal supercell.


 Subroutine GETGRP returns: Found  6 space group operations
 (whereof  6 operations were pure point group operations)
 out of a pool of 24 trial point group operations.


The dynamic configuration has the point symmetry S_6 .


Analysis of constrained symmetry for selective dynamics:
=====================================================================
 Subroutine PRICEL returns:
 Original cell was already a primitive cell.
 

 Routine SETGRP: Setting up the symmetry group for a 
 hexagonal supercell.


 Subroutine GETGRP returns: Found  6 space group operations
 (whereof  6 operations were pure point group operations)
 out of a pool of 24 trial point group operations.


The constrained configuration has the point symmetry S_6 .


Analysis of structural, dynamic, and magnetic symmetry:
=====================================================================
 Subroutine PRICEL returns:
 Original cell was already a primitive cell.
 

 Routine SETGRP: Setting up the symmetry group for a 
 hexagonal supercell.


 Subroutine GETGRP returns: Found  6 space group operations
 (whereof  6 operations were pure point group operations)
 out of a pool of 24 trial point group operations.


The magnetic configuration has the point symmetry S_6 .


 Subroutine INISYM returns: Found  6 space group operations
 (whereof  6 operations are pure point group operations),
 and found     1 'primitive' translations



 KPOINTS: Kpoints from vasprun.xml                

Automatic generation of k-mesh.
Space group operators:
 irot       det(A)        alpha          n_x          n_y          n_z        tau_x        tau_y        tau_z
    1     1.000000     0.000000     1.000000     0.000000     0.000000     0.000000     0.000000     0.000000
    2    -1.000000     0.000000     1.000000     0.000000     0.000000     0.000000     0.000000     0.000000
    3     1.000000   120.000000     0.000000     0.000000     1.000000     0.000000     0.000000     0.000000
    4    -1.000000   120.000000     0.000000     0.000000     1.000000     0.000000     0.000000     0.000000
    5     1.000000   120.000000     0.000000     0.000000    -1.000000     0.000000     0.000000     0.000000
    6    -1.000000   120.000000     0.000000     0.000000    -1.000000     0.000000     0.000000     0.000000
 
 Subroutine IBZKPT returns following result:
 ===========================================
 
 Found      5 irreducible k-points:
 
 Following reciprocal coordinates:
            Coordinates               Weight
  0.000000  0.000000  0.000000      1.000000
  0.200000  0.000000  0.000000      6.000000
  0.400000  0.000000  0.000000      6.000000
  0.400000  0.200000  0.000000      6.000000
 -0.400000  0.200000  0.000000      6.000000
 
 Following cartesian coordinates:
            Coordinates               Weight
  0.000000  0.000000  0.000000      1.000000
  0.028953 -0.016716  0.000000      6.000000
  0.057906 -0.033432  0.000000      6.000000
  0.057906  0.000000  0.000000      6.000000
 -0.057906  0.066864  0.000000      6.000000
 
 TETIRR: Found     15 inequivalent tetrahedra from      150


--------------------------------------------------------------------------------------------------------




 Dimension of arrays:
   k-points           NKPTS =      5   k-points in BZ     NKDIM =      5   number of bands    NBANDS=     48
   number of dos      NEDOS =    301   number of ions     NIONS =     10
   non local maximal  LDIM  =      6   non local SUM 2l+1 LMDIM =     18
   total plane-waves  NPLWV = 524880
   max r-space proj   IRMAX =   8238   max aug-charges    IRDMAX=  29641
   dimension x,y,z NGX =    54 NGY =   54 NGZ =  180
   dimension x,y,z NGXF=   108 NGYF=  108 NGZF=  360
   support grid    NGXF=   108 NGYF=  108 NGZF=  360
   ions per type =               2   2   6
   NGX,Y,Z   is equivalent  to a cutoff of  13.00, 13.00, 12.76 a.u.
   NGXF,Y,Z  is equivalent  to a cutoff of  25.99, 25.99, 25.53 a.u.

 SYSTEM =  unknown system                          
 POSCAR =  Mn2 Ge2 S6                              

 Startparameter for this run:
   NWRITE =      2    write-flag & timer
   PREC   = accura    normal or accurate (medium, high low for compatibility)
   ISTART =      0    job   : 0-new  1-cont  2-samecut
   ICHARG =      2    charge: 1-file 2-atom 10-const
   ISPIN  =      2    spin polarized calculation?
   LNONCOLLINEAR =      F non collinear calculations
   LSORBIT =      F    spin-orbit coupling
   INIWAV =      1    electr: 0-lowe 1-rand  2-diag
   LASPH  =      F    aspherical Exc in radial PAW
   METAGGA=      F    non-selfconsistent MetaGGA calc.

 Electronic Relaxation 1
   ENCUT  =  520.0 eV  38.22 Ry    6.18 a.u.  12.84 12.84 43.59*2*pi/ulx,y,z
   ENINI  =  520.0     initial cutoff
   ENAUG  =  500.7 eV  augmentation charge cutoff
   NELM   =    400;   NELMIN=  2; NELMDL=  0     # of ELM steps 
   EDIFF  = 0.1E-03   stopping-criterion for ELM
   LREAL  =      T    real-space projection
   NLSPLINE    = F    spline interpolate recip. space projectors
   LCOMPAT=      F    compatible to vasp.4.4
   GGA_COMPAT  = T    GGA compatible to vasp.4.4-vasp.4.6
   LMAXPAW     = -100 max onsite density
   LMAXMIX     =    2 max onsite mixed and CHGCAR
   VOSKOWN=      0    Vosko Wilk Nusair interpolation
   ROPT   =   -0.00025  -0.00025  -0.00025
 Ionic relaxation
   EDIFFG = 0.1E-02   stopping-criterion for IOM
   NSW    =     99    number of steps for IOM
   NBLOCK =      1;   KBLOCK =     99    inner block; outer block 
   IBRION =      2    ionic relax: 0-MD 1-quasi-New 2-CG
   NFREE  =      1    steps in history (QN), initial steepest desc. (CG)
   ISIF   =      3    stress and relaxation
   IWAVPR =     11    prediction:  0-non 1-charg 2-wave 3-comb
   ISYM   =      2    0-nonsym 1-usesym 2-fastsym
   LCORR  =      T    Harris-Foulkes like correction to forces

   POTIM  = 0.5000    time-step for ionic-motion
   TEIN   =    0.0    initial temperature
   TEBEG  =    0.0;   TEEND  =   0.0 temperature during run
   SMASS  =  -3.00    Nose mass-parameter (am)
   estimated Nose-frequenzy (Omega)   =  0.10E-29 period in steps =****** mass=  -0.109E-26a.u.
   SCALEE = 1.0000    scale energy and forces
   NPACO  =    256;   APACO  = 16.0  distance and # of slots for P.C.
   PSTRESS=    0.0 pullay stress

  Mass of Ions in am
   POMASS =  54.94 72.61 32.07
  Ionic Valenz
   ZVAL   =   7.00  4.00  6.00
  Atomic Wigner-Seitz radii
   RWIGS  =  -1.00 -1.00 -1.00
  virtual crystal weights 
   VCA    =   1.00  1.00  1.00
   NELECT =      58.0000    total number of electrons
   NUPDOWN=      -1.0000    fix difference up-down

 DOS related values:
   EMIN   =  10.00;   EMAX   =-10.00  energy-range for DOS
   EFERMI =   0.00
   ISMEAR =    -5;   SIGMA  =   0.05  broadening in eV -4-tet -1-fermi 0-gaus

 Electronic relaxation 2 (details)
   IALGO  =     38    algorithm
   LDIAG  =      T    sub-space diagonalisation (order eigenvalues)
   LSUBROT=      F    optimize rotation matrix (better conditioning)
   TURBO    =      0    0=normal 1=particle mesh
   IRESTART =      0    0=no restart 2=restart with 2 vectors
   NREBOOT  =      0    no. of reboots
   NMIN     =      0    reboot dimension
   EREF     =   0.00    reference energy to select bands
   IMIX   =      4    mixing-type and parameters
     AMIX     =   0.40;   BMIX     =  1.00
     AMIX_MAG =   1.60;   BMIX_MAG =  1.00
     AMIN     =   0.01
     WC   =   100.;   INIMIX=   1;  MIXPRE=   1;  MAXMIX= -45

 Intra band minimization:
   WEIMIN = 0.0010     energy-eigenvalue tresh-hold
   EBREAK =  0.52E-06  absolut break condition
   DEPER  =   0.30     relativ break condition  

   TIME   =   0.40     timestep for ELM

  volume/ion in A,a.u.               =      96.88       653.80
  Fermi-wavevector in a.u.,A,eV,Ry     =   0.640424  1.210226  5.580332  0.410143
  Thomas-Fermi vector in A             =   1.706427

 Write flags
   LWAVE        =      F    write WAVECAR
   LDOWNSAMPLE  =      F    k-point downsampling of WAVECAR
   LCHARG       =      T    write CHGCAR
   LVTOT        =      F    write LOCPOT, total local potential
   LVHAR        =      F    write LOCPOT, Hartree potential only
   LELF         =      F    write electronic localiz. function (ELF)
   LORBIT       =     11    0 simple, 1 ext, 2 COOP (PROOUT), +10 PAW based schemes


 Dipole corrections
   LMONO  =      F    monopole corrections only (constant potential shift)
   LDIPOL =      F    correct potential (dipole corrections)
   IDIPOL =      0    1-x, 2-y, 3-z, 4-all directions 
   EPSILON=  1.0000000 bulk dielectric constant

 Exchange correlation treatment:
   GGA     =    BO    GGA type
   LEXCH   =    42    internal setting for exchange type
   VOSKOWN=      0    Vosko Wilk Nusair interpolation
   LHFCALC =     F    Hartree Fock is set to
   LHFONE  =     F    Hartree Fock one center treatment
   AEXX    =    0.0000 exact exchange contribution

 vdW DFT:
   LUSE_VDW   =     T    switch on vdW DFT
   Zab_VDW    =-.8491    correlation parameter
   PARAM1     =0.1833
   PARAM2     =0.2200
   PARAM3     =0.0000
   -- rVV10 --
   BPARAM     = 6.3000
   CPARAM     = 0.0093

 Linear response parameters
   LEPSILON=     F    determine dielectric tensor
   LRPA    =     F    only Hartree local field effects (RPA)
   LNABLA  =     F    use nabla operator in PAW spheres
   LVEL    =     F    velocity operator in full k-point grid
   LINTERFAST=   F  fast interpolation
   KINTER  =     0    interpolate to denser k-point grid
   CSHIFT  =0.1000    complex shift for real part using Kramers Kronig
   OMEGAMAX=  -1.0    maximum frequency
   DEG_THRESHOLD= 0.2000000E-02 threshold for treating states as degnerate
   RTIME   =   -0.100 relaxation time in fs
  (WPLASMAI=    0.000 imaginary part of plasma frequency in eV, 0.658/RTIME)
   DFIELD  = 0.0000000 0.0000000 0.0000000 field for delta impulse in time

 Orbital magnetization related:
   ORBITALMAG=     F  switch on orbital magnetization
   LCHIMAG   =     F  perturbation theory with respect to B field
   DQ        =  0.001000  dq finite difference perturbation B field
   LLRAUG    =     F  two centre corrections for induced B field



--------------------------------------------------------------------------------------------------------


 conjugate gradient relaxation of ions
   using selective dynamics as specified on POSCAR
 charge density and potential will be updated during run
 spin polarized calculation
 Variant of blocked Davidson
 Davidson routine will perform the subspace rotation
 perform sub-space diagonalisation
    after iterative eigenvector-optimisation
 modified Broyden-mixing scheme, WC =      100.0
 initial mixing is a Kerker type mixing with AMIX =  0.4000 and BMIX =      1.0000
 Hartree-type preconditioning will be used
 using additional bands           19
 real space projection scheme for non local part
 use partial core corrections
 calculate Harris-corrections to forces   (improved forces if not selfconsistent)
 use gradient corrections 
 use of overlap-Matrix (Vanderbilt PP)
 Fermi weights with tetrahedron method with Bloechl corrections


--------------------------------------------------------------------------------------------------------


  energy-cutoff  :      520.00
  volume of cell :      968.84
      direct lattice vectors                 reciprocal lattice vectors
     6.907777000 -0.000000000  0.000000000     0.144764372 -0.083579742  0.000000000
     3.453888000  5.982310000  0.000000000     0.000000000  0.167159509 -0.000000000
     0.000000000  0.000000000 23.444588000    -0.000000000  0.000000000  0.042653767

  length of vectors
     6.907777000  6.907776433 23.444588000     0.167159495  0.167159509  0.042653767



 k-points in units of 2pi/SCALE and weight: Kpoints from vasprun.xml                
   0.00000000  0.00000000  0.00000000       0.040
   0.02895287 -0.01671595  0.00000000       0.240
   0.05790575 -0.03343190  0.00000000       0.240
   0.05790575  0.00000000  0.00000000       0.240
  -0.05790575  0.06686380  0.00000000       0.240

 k-points in reciprocal lattice and weights: Kpoints from vasprun.xml                
   0.00000000  0.00000000  0.00000000       0.040
   0.20000000  0.00000000  0.00000000       0.240
   0.40000000  0.00000000  0.00000000       0.240
   0.40000000  0.20000000  0.00000000       0.240
  -0.40000000  0.20000000  0.00000000       0.240

 position of ions in fractional coordinates (direct lattice) 
   0.33333300  0.33333300  0.49992500
   0.66666700  0.66666700  0.50007500
   0.00000000  0.00000000  0.44821600
   0.00000000  0.00000000  0.55178400
   0.62635700  0.00042000  0.57375200
   0.00042000  0.37322400  0.57375200
   0.37322400  0.62635700  0.57375200
   0.37364300  0.99958000  0.42624800
   0.99958000  0.62677600  0.42624800
   0.62677600  0.37364300  0.42624800

 position of ions in cartesian coordinates  (Angst):
   3.45388488  1.99410134 11.72053566
   6.90778012  3.98820866 11.72405234
   0.00000000  0.00000000 10.50823946
   0.00000000  0.00000000 12.93634854
   4.32818511  0.00251257 13.45137925
   1.29197516  2.23274167 13.45137925
   4.74151509  3.74706174 13.45137925
   6.03347989  5.97979743  9.99320875
   9.06968984  3.74956833  9.99320875
   5.62014991  2.23524826  9.99320875



--------------------------------------------------------------------------------------------------------


 k-point  1 :   0.0000 0.0000 0.0000  plane waves:   26073
 k-point  2 :   0.2000 0.0000 0.0000  plane waves:   26070
 k-point  3 :   0.4000 0.0000 0.0000  plane waves:   26086
 k-point  4 :   0.4000 0.2000 0.0000  plane waves:   26085
 k-point  5 :  -0.4000 0.2000 0.0000  plane waves:   26115

 maximum and minimum number of plane-waves per node :     26115    26070

 maximum number of plane-waves:     26115
 maximum index in each direction: 
   IXMAX=   13   IYMAX=   12   IZMAX=   43
   IXMIN=  -13   IYMIN=  -13   IZMIN=  -43


 serial   3D FFT for wavefunctions
 parallel 3D FFT for charge:
    minimum data exchange during FFTs selected (reduces bandwidth)


 total amount of memory used by VASP MPI-rank0   126930. kBytes
=======================================================================

   base      :      30000. kBytes
   nonlr-proj:       6635. kBytes
   fftplans  :      11247. kBytes
   grid      :      66142. kBytes
   one-center:        311. kBytes
   wavefun   :      12595. kBytes

     INWAV:  cpu time    0.0000: real time    0.0004
 Broyden mixing: mesh for mixing (old mesh)
   NGX = 25   NGY = 25   NGZ = 87
  (NGX  =108   NGY  =108   NGZ  =360)
  gives a total of  54375 points

 initial charge density was supplied:
 charge density of overlapping atoms calculated
 number of electron      58.0000000 magnetization       7.0000000
 keeping initial charge density in first step


--------------------------------------------------------------------------------------------------------


 Maximum index for non-local projection operator         7925
 Maximum index for augmentation-charges         2133 (set IRDMAX)


--------------------------------------------------------------------------------------------------------


 First call to EWALD:  gamma=   0.179
 Maximum number of real-space cells 4x 4x 1
 Maximum number of reciprocal cells 2x 2x 6

    FEWALD:  cpu time    0.0040: real time    0.0015


--------------------------------------- Iteration      1(   1)  ---------------------------------------


vdW kernel read from vdw_kernel.bindat
  0.0000  0.2424  0.5071  0.7962  1.1119  1.4567  1.8333  2.2446  2.6937  3.1842
  3.7199  4.3049  4.9438  5.6415  6.4036  7.2358  8.1446  9.1372 10.2212 11.4050
 12.6979 14.1099 15.6519 17.3360 19.1751 21.1837 23.3773 25.7729 28.3892 31.2465
 34.3669 37.7748 41.4965 45.5611 50.0000

    POTLOK:  cpu time   52.1960: real time   52.5056
    SETDIJ:  cpu time    0.0400: real time    0.0434
     EDDAV:  cpu time   22.2800: real time   22.6141
 BZINTS: Fermi energy:  5.800724; 58.000000 electrons
         Band energy: -14.470851;  BLOECHL correction: -0.045971
       DOS:  cpu time    0.0040: real time    0.0048
    --------------------------------------------
      LOOP:  cpu time   74.5200: real time   75.1679

 eigenvalue-minimisations  :   960
 total energy-change (2. order) : 0.4165340E+03  (-0.1663528E+04)
 number of electron      58.0000000 magnetization       7.0000000
 augmentation part       58.0000000 magnetization       7.0000000

 Free energy of the ion-electron system (eV)
  ---------------------------------------------------
  alpha Z        PSCENC =        24.19628403
  Ewald energy   TEWEN  =      6490.34799790
  -Hartree energ DENC   =     -8909.94308599
  -exchange      EXHF   =         0.00000000
  -V(xc)+E(xc)   XCENC  =        26.53749321
  PAW double counting   =      1337.94020352    -1254.08216634
  entropy T*S    EENTRO =         0.00000000
  eigenvalues    EBANDS =       -14.47085130
  atomic energy  EATOM  =      2716.00809441
  Solvation  Ediel_sol  =         0.00000000
  ---------------------------------------------------
  free energy    TOTEN  =       416.53396945 eV

  energy without entropy =      416.53396945  energy(sigma->0) =      416.53396945


--------------------------------------------------------------------------------------------------------




--------------------------------------- Iteration      1(   2)  ---------------------------------------


     EDDAV:  cpu time   26.9920: real time   27.3471
 BZINTS: Fermi energy: -1.090635; 58.000000 electrons
         Band energy:-395.266388;  BLOECHL correction: -0.114411
       DOS:  cpu time    0.0080: real time    0.0049
    --------------------------------------------
      LOOP:  cpu time   27.0000: real time   27.3520

 eigenvalue-minimisations  :  1184
 total energy-change (2. order) :-0.3807955E+03  (-0.3497446E+03)
 number of electron      58.0000000 magnetization       7.0000000
 augmentation part       58.0000000 magnetization       7.0000000

 Free energy of the ion-electron system (eV)
  ---------------------------------------------------
  alpha Z        PSCENC =        24.19628403
  Ewald energy   TEWEN  =      6490.34799790
  -Hartree energ DENC   =     -8909.94308599
  -exchange      EXHF   =         0.00000000
  -V(xc)+E(xc)   XCENC  =        26.53749321
  PAW double counting   =      1337.94020352    -1254.08216634
  entropy T*S    EENTRO =         0.00000000
  eigenvalues    EBANDS =      -395.26638838
  atomic energy  EATOM  =      2716.00809441
  Solvation  Ediel_sol  =         0.00000000
  ---------------------------------------------------
  free energy    TOTEN  =        35.73843237 eV

  energy without entropy =       35.73843237  energy(sigma->0) =       35.73843237


--------------------------------------------------------------------------------------------------------




--------------------------------------- Iteration      1(   3)  ---------------------------------------


     EDDAV:  cpu time   31.8000: real time   32.3009
 BZINTS: Fermi energy: -2.835549; 58.000000 electrons
         Band energy:-482.005790;  BLOECHL correction: -0.007676
       DOS:  cpu time    0.0080: real time    0.0069
    --------------------------------------------
      LOOP:  cpu time   31.8080: real time   32.3078

 eigenvalue-minimisations  :  1424
 total energy-change (2. order) :-0.8673940E+02  (-0.8292867E+02)
 number of electron      58.0000000 magnetization       7.0000000
 augmentation part       58.0000000 magnetization       7.0000000

 Free energy of the ion-electron system (eV)
  ---------------------------------------------------
  alpha Z        PSCENC =        24.19628403
  Ewald energy   TEWEN  =      6490.34799790
  -Hartree energ DENC   =     -8909.94308599
  -exchange      EXHF   =         0.00000000
  -V(xc)+E(xc)   XCENC  =        26.53749321
  PAW double counting   =      1337.94020352    -1254.08216634
  entropy T*S    EENTRO =         0.00000000
  eigenvalues    EBANDS =      -482.00579000
  atomic energy  EATOM  =      2716.00809441
  Solvation  Ediel_sol  =         0.00000000
  ---------------------------------------------------
  free energy    TOTEN  =       -51.00096926 eV

  energy without entropy =      -51.00096926  energy(sigma->0) =      -51.00096926


--------------------------------------------------------------------------------------------------------




--------------------------------------- Iteration      1(   4)  ---------------------------------------


     EDDAV:  cpu time   32.2760: real time   32.6746
 BZINTS: Fermi energy: -2.888512; 58.000000 electrons
         Band energy:-486.724810;  BLOECHL correction: -0.005075
       DOS:  cpu time    0.0040: real time    0.0051
    --------------------------------------------
      LOOP:  cpu time   32.2800: real time   32.6797

 eigenvalue-minimisations  :  1440
 total energy-change (2. order) :-0.4719020E+01  (-0.4598157E+01)
 number of electron      58.0000000 magnetization       7.0000000
 augmentation part       58.0000000 magnetization       7.0000000

 Free energy of the ion-electron system (eV)
  ---------------------------------------------------
  alpha Z        PSCENC =        24.19628403
  Ewald energy   TEWEN  =      6490.34799790
  -Hartree energ DENC   =     -8909.94308599
  -exchange      EXHF   =         0.00000000
  -V(xc)+E(xc)   XCENC  =        26.53749321
  PAW double counting   =      1337.94020352    -1254.08216634
  entropy T*S    EENTRO =         0.00000000
  eigenvalues    EBANDS =      -486.72481000
  atomic energy  EATOM  =      2716.00809441
  Solvation  Ediel_sol  =         0.00000000
  ---------------------------------------------------
  free energy    TOTEN  =       -55.71998925 eV

  energy without entropy =      -55.71998925  energy(sigma->0) =      -55.71998925


--------------------------------------------------------------------------------------------------------




--------------------------------------- Iteration      1(   5)  ---------------------------------------


     EDDAV:  cpu time   26.9600: real time   27.8878
 BZINTS: Fermi energy: -2.889927; 58.000000 electrons
         Band energy:-486.836353;  BLOECHL correction: -0.005009
       DOS:  cpu time    0.0040: real time    0.0059
    CHARGE:  cpu time    1.7840: real time    1.9500
    MIXING:  cpu time    0.0400: real time    0.0395
    --------------------------------------------
      LOOP:  cpu time   28.7880: real time   29.8832

 eigenvalue-minimisations  :  1216
 total energy-change (2. order) :-0.1115428E+00  (-0.1114696E+00)
 number of electron      57.9999995 magnetization       6.7773598
 augmentation part       -3.6201442 magnetization       4.9010158

 Broyden mixing:
  rms(total) = 0.27383E+01    rms(broyden)= 0.27380E+01
  rms(prec ) = 0.30659E+01
  weight for this iteration     100.00

 Free energy of the ion-electron system (eV)
  ---------------------------------------------------
  alpha Z        PSCENC =        24.19628403
  Ewald energy   TEWEN  =      6490.34799790
  -Hartree energ DENC   =     -8909.94308599
  -exchange      EXHF   =         0.00000000
  -V(xc)+E(xc)   XCENC  =        26.53749321
  PAW double counting   =      1337.94020352    -1254.08216634
  entropy T*S    EENTRO =         0.00000000
  eigenvalues    EBANDS =      -486.83635276
  atomic energy  EATOM  =      2716.00809441
  Solvation  Ediel_sol  =         0.00000000
  ---------------------------------------------------
  free energy    TOTEN  =       -55.83153202 eV

  energy without entropy =      -55.83153202  energy(sigma->0) =      -55.83153202


--------------------------------------------------------------------------------------------------------




--------------------------------------- Iteration      1(   6)  ---------------------------------------


    POTLOK:  cpu time   51.6800: real time   51.9969
    SETDIJ:  cpu time    0.0440: real time    0.0434
     EDDAV:  cpu time   28.9280: real time   29.1280
 BZINTS: Fermi energy: -4.979339; 58.000000 electrons
         Band energy:-646.342658;  BLOECHL correction: -0.021760
       DOS:  cpu time    0.0040: real time    0.0073
    CHARGE:  cpu time    1.9560: real time    1.9603
    MIXING:  cpu time    0.0440: real time    0.0460
    --------------------------------------------
      LOOP:  cpu time   82.6560: real time   83.1818

 eigenvalue-minimisations  :  1264
 total energy-change (2. order) :-0.7766625E+02  (-0.3874243E+02)
 number of electron      58.0000002 magnetization       6.5979328
 augmentation part        8.9974777 magnetization       5.7417152

 Broyden mixing:
  rms(total) = 0.67113E+01    rms(broyden)= 0.67112E+01
  rms(prec ) = 0.73819E+01
  weight for this iteration     100.00

 eigenvalues of (default mixing * dielectric matrix)
  average eigenvalue GAMMA=   0.2436
  0.2436

 Free energy of the ion-electron system (eV)
  ---------------------------------------------------
  alpha Z        PSCENC =        24.19628403
  Ewald energy   TEWEN  =      6490.34799790
  -Hartree energ DENC   =     -8836.88295248
  -exchange      EXHF   =         0.00000000
  -V(xc)+E(xc)   XCENC  =        26.43593399
  PAW double counting   =      1215.15430696    -1122.41478619
  entropy T*S    EENTRO =         0.00000000
  eigenvalues    EBANDS =      -646.34265813
  atomic energy  EATOM  =      2716.00809441
  Solvation  Ediel_sol  =         0.00000000
  ---------------------------------------------------
  free energy    TOTEN  =      -133.49777950 eV

  energy without entropy =     -133.49777950  energy(sigma->0) =     -133.49777950


--------------------------------------------------------------------------------------------------------




--------------------------------------- Iteration      1(   7)  ---------------------------------------


    POTLOK:  cpu time   51.6720: real time   51.9848
    SETDIJ:  cpu time    0.0400: real time    0.0434
     EDDAV:  cpu time   29.3200: real time   29.5354
 BZINTS: Fermi energy: -4.626592; 58.000000 electrons
         Band energy:-495.841173;  BLOECHL correction: -0.002786
       DOS:  cpu time    0.0080: real time    0.0079
    CHARGE:  cpu time    1.9680: real time    1.9862
    MIXING:  cpu time    0.0480: real time    0.0456
    --------------------------------------------
      LOOP:  cpu time   83.0560: real time   83.6034

 eigenvalue-minimisations  :  1296
 total energy-change (2. order) : 0.8925082E+02  (-0.9111648E+01)
 number of electron      58.0000000 magnetization       6.5048709
 augmentation part        2.2669960 magnetization       5.2788239

 Broyden mixing:
  rms(total) = 0.15349E+01    rms(broyden)= 0.15347E+01
  rms(prec ) = 0.16907E+01
  weight for this iteration     100.00

 eigenvalues of (default mixing * dielectric matrix)
  average eigenvalue GAMMA=   0.3601
  0.3601  0.3601

 Free energy of the ion-electron system (eV)
  ---------------------------------------------------
  alpha Z        PSCENC =        24.19628403
  Ewald energy   TEWEN  =      6490.34799790
  -Hartree energ DENC   =     -8888.31082897
  -exchange      EXHF   =         0.00000000
  -V(xc)+E(xc)   XCENC  =        25.61227542
  PAW double counting   =      1306.38919318    -1222.64879886
  entropy T*S    EENTRO =         0.00000000
  eigenvalues    EBANDS =      -495.84117272
  atomic energy  EATOM  =      2716.00809441
  Solvation  Ediel_sol  =         0.00000000
  ---------------------------------------------------
  free energy    TOTEN  =       -44.24695561 eV

  energy without entropy =      -44.24695561  energy(sigma->0) =      -44.24695561


--------------------------------------------------------------------------------------------------------




--------------------------------------- Iteration      1(   8)  ---------------------------------------


    POTLOK:  cpu time   51.5680: real time   51.8892
    SETDIJ:  cpu time    0.0440: real time    0.0437
     EDDAV:  cpu time   29.2040: real time   29.9279
 BZINTS: Fermi energy: -3.866327; 58.000000 electrons
         Band energy:-489.647573;  BLOECHL correction: -0.012099
       DOS:  cpu time    0.0080: real time    0.0053
    CHARGE:  cpu time    1.9400: real time    1.9844
    MIXING:  cpu time    0.0400: real time    0.0422
    --------------------------------------------
      LOOP:  cpu time   82.8040: real time   83.8927

 eigenvalue-minimisations  :  1312
 total energy-change (2. order) :-0.1394817E+00  (-0.2234946E+01)
 number of electron      57.9999998 magnetization       6.5799664
 augmentation part       -0.1587055 magnetization       3.6030545

 Broyden mixing:
  rms(total) = 0.14659E+01    rms(broyden)= 0.14658E+01
  rms(prec ) = 0.14765E+01
  weight for this iteration     100.00

 eigenvalues of (default mixing * dielectric matrix)
  average eigenvalue GAMMA=   0.3546
  0.3515  0.3562  0.3562

 Free energy of the ion-electron system (eV)
  ---------------------------------------------------
  alpha Z        PSCENC =        24.19628403
  Ewald energy   TEWEN  =      6490.34799790
  -Hartree energ DENC   =     -8894.67116482
  -exchange      EXHF   =         0.00000000
  -V(xc)+E(xc)   XCENC  =        26.14984945
  PAW double counting   =      1317.34291543    -1234.11284047
  entropy T*S    EENTRO =         0.00000000
  eigenvalues    EBANDS =      -489.64757320
  atomic energy  EATOM  =      2716.00809441
  Solvation  Ediel_sol  =         0.00000000
  ---------------------------------------------------
  free energy    TOTEN  =       -44.38643728 eV

  energy without entropy =      -44.38643728  energy(sigma->0) =      -44.38643728


--------------------------------------------------------------------------------------------------------




--------------------------------------- Iteration      1(   9)  ---------------------------------------


    POTLOK:  cpu time   51.6880: real time   52.0094
    SETDIJ:  cpu time    0.0480: real time    0.0487
     EDDAV:  cpu time   33.3760: real time   33.6356
 BZINTS: Fermi energy: -4.087886; 58.000000 electrons
         Band energy:-493.122679;  BLOECHL correction: -0.010451
       DOS:  cpu time    0.0080: real time    0.0076
    CHARGE:  cpu time    1.9640: real time    2.0388
    MIXING:  cpu time    0.0480: real time    0.0478
    --------------------------------------------
      LOOP:  cpu time   87.1320: real time   87.7879

 eigenvalue-minimisations  :  1488
 total energy-change (2. order) :-0.4684632E+00  (-0.1012891E+00)
 number of electron      57.9999999 magnetization       6.7510391
 augmentation part        0.3815575 magnetization       3.8436786

 Broyden mixing:
  rms(total) = 0.12841E+01    rms(broyden)= 0.12841E+01
  rms(prec ) = 0.12892E+01
  weight for this iteration     100.00

 eigenvalues of (default mixing * dielectric matrix)
  average eigenvalue GAMMA=   0.4469
  0.5405  0.5405  0.3534  0.3534

 Free energy of the ion-electron system (eV)
  ---------------------------------------------------
  alpha Z        PSCENC =        24.19628403
  Ewald energy   TEWEN  =      6490.34799790
  -Hartree energ DENC   =     -8892.08418284
  -exchange      EXHF   =         0.00000000
  -V(xc)+E(xc)   XCENC  =        26.67076978
  PAW double counting   =      1311.57699103    -1228.44817531
  entropy T*S    EENTRO =         0.00000000
  eigenvalues    EBANDS =      -493.12267948
  atomic energy  EATOM  =      2716.00809441
  Solvation  Ediel_sol  =         0.00000000
  ---------------------------------------------------
  free energy    TOTEN  =       -44.85490047 eV

  energy without entropy =      -44.85490047  energy(sigma->0) =      -44.85490047


--------------------------------------------------------------------------------------------------------




--------------------------------------- Iteration      1(  10)  ---------------------------------------


    POTLOK:  cpu time   52.3680: real time   52.5078
    SETDIJ:  cpu time    0.0440: real time    0.0427
     EDDAV:  cpu time   34.3080: real time   34.6760
 BZINTS: Fermi energy: -4.118629; 58.000000 electrons
         Band energy:-492.423959;  BLOECHL correction: -0.008157
       DOS:  cpu time    0.0040: real time    0.0058
    CHARGE:  cpu time    1.9720: real time    1.9936
    MIXING:  cpu time    0.0480: real time    0.0467
    --------------------------------------------
      LOOP:  cpu time   88.7440: real time   89.2725

 eigenvalue-minimisations  :  1536
 total energy-change (2. order) :-0.5556877E+00  (-0.2113582E-01)
 number of electron      57.9999999 magnetization       7.2334561
 augmentation part        0.4402888 magnetization       4.3782034

 Broyden mixing:
  rms(total) = 0.10267E+01    rms(broyden)= 0.10267E+01
  rms(prec ) = 0.10331E+01
  weight for this iteration     100.00

 eigenvalues of (default mixing * dielectric matrix)
  average eigenvalue GAMMA=   0.7051
  1.0678  1.0678  0.4448  0.4448  0.5004

 Free energy of the ion-electron system (eV)
  ---------------------------------------------------
  alpha Z        PSCENC =        24.19628403
  Ewald energy   TEWEN  =      6490.34799790
  -Hartree energ DENC   =     -8893.90972633
  -exchange      EXHF   =         0.00000000
  -V(xc)+E(xc)   XCENC  =        27.73446129
  PAW double counting   =      1313.17639407    -1230.54013475
  entropy T*S    EENTRO =         0.00000000
  eigenvalues    EBANDS =      -492.42395883
  atomic energy  EATOM  =      2716.00809441
  Solvation  Ediel_sol  =         0.00000000
  ---------------------------------------------------
  free energy    TOTEN  =       -45.41058820 eV

  energy without entropy =      -45.41058820  energy(sigma->0) =      -45.41058820


--------------------------------------------------------------------------------------------------------




--------------------------------------- Iteration      1(  11)  ---------------------------------------


    POTLOK:  cpu time   52.5120: real time   52.7209
    SETDIJ:  cpu time    0.0440: real time    0.0429
     EDDAV:  cpu time   33.2080: real time   33.4990
 BZINTS: Fermi energy: -4.166579; 58.000000 electrons
         Band energy:-492.700292;  BLOECHL correction: -0.009485
       DOS:  cpu time    0.0080: real time    0.0066
    CHARGE:  cpu time    2.0040: real time    2.0072
    MIXING:  cpu time    0.0440: real time    0.0437
    --------------------------------------------
      LOOP:  cpu time   87.8200: real time   88.3202

 eigenvalue-minimisations  :  1488
 total energy-change (2. order) :-0.6786521E+00  (-0.5378019E-01)
 number of electron      57.9999999 magnetization       7.4554851
 augmentation part        0.4226928 magnetization       5.0159227

 Broyden mixing:
  rms(total) = 0.31041E+00    rms(broyden)= 0.31038E+00
  rms(prec ) = 0.32133E+00
  weight for this iteration     100.00

 eigenvalues of (default mixing * dielectric matrix)
  average eigenvalue GAMMA=   0.7804
  1.1859  1.1859  0.7179  0.7179  0.4374  0.4374

 Free energy of the ion-electron system (eV)
  ---------------------------------------------------
  alpha Z        PSCENC =        24.19628403
  Ewald energy   TEWEN  =      6490.34799790
  -Hartree energ DENC   =     -8896.33545632
  -exchange      EXHF   =         0.00000000
  -V(xc)+E(xc)   XCENC  =        31.03813264
  PAW double counting   =      1312.18310511    -1230.82710647
  entropy T*S    EENTRO =         0.00000000
  eigenvalues    EBANDS =      -492.70029161
  atomic energy  EATOM  =      2716.00809441
  Solvation  Ediel_sol  =         0.00000000
  ---------------------------------------------------
  free energy    TOTEN  =       -46.08924032 eV

  energy without entropy =      -46.08924032  energy(sigma->0) =      -46.08924032


--------------------------------------------------------------------------------------------------------




--------------------------------------- Iteration      1(  12)  ---------------------------------------


    POTLOK:  cpu time   51.2200: real time   52.3873
    SETDIJ:  cpu time    0.0440: real time    0.0434
     EDDAV:  cpu time   32.6600: real time   32.9787
 BZINTS: Fermi energy: -4.215664; 58.000000 electrons
         Band energy:-496.302530;  BLOECHL correction: -0.010186
       DOS:  cpu time    0.0040: real time    0.0077
    CHARGE:  cpu time    2.0200: real time    2.0193
    MIXING:  cpu time    0.0440: real time    0.0442
    --------------------------------------------
      LOOP:  cpu time   85.9920: real time   87.4807

 eigenvalue-minimisations  :  1456
 total energy-change (2. order) :-0.3279667E-01  (-0.2047855E-01)
 number of electron      57.9999999 magnetization       7.5573040
 augmentation part        0.4577204 magnetization       5.2736025

 Broyden mixing:
  rms(total) = 0.17860E+00    rms(broyden)= 0.17858E+00
  rms(prec ) = 0.19439E+00
  weight for this iteration     100.00

 eigenvalues of (default mixing * dielectric matrix)
  average eigenvalue GAMMA=   0.9069
  1.7292  1.1751  1.1751  0.4399  0.4399  0.7229  0.6660

 Free energy of the ion-electron system (eV)
  ---------------------------------------------------
  alpha Z        PSCENC =        24.19628403
  Ewald energy   TEWEN  =      6490.34799790
  -Hartree energ DENC   =     -8893.79805356
  -exchange      EXHF   =         0.00000000
  -V(xc)+E(xc)   XCENC  =        32.49625913
  PAW double counting   =      1305.74243298    -1224.81252213
  entropy T*S    EENTRO =         0.00000000
  eigenvalues    EBANDS =      -496.30252975
  atomic energy  EATOM  =      2716.00809441
  Solvation  Ediel_sol  =         0.00000000
  ---------------------------------------------------
  free energy    TOTEN  =       -46.12203699 eV

  energy without entropy =      -46.12203699  energy(sigma->0) =      -46.12203699


--------------------------------------------------------------------------------------------------------




--------------------------------------- Iteration      1(  13)  ---------------------------------------


    POTLOK:  cpu time   51.9800: real time   52.0932
    SETDIJ:  cpu time    0.0440: real time    0.0434
     EDDAV:  cpu time   31.8600: real time   31.9703
 BZINTS: Fermi energy: -4.247615; 58.000000 electrons
         Band energy:-498.806801;  BLOECHL correction: -0.009997
       DOS:  cpu time    0.0040: real time    0.0071
    CHARGE:  cpu time    1.9880: real time    2.0131
    MIXING:  cpu time    0.0440: real time    0.0447
    --------------------------------------------
      LOOP:  cpu time   85.9200: real time   86.1717

 eigenvalue-minimisations  :  1408
 total energy-change (2. order) : 0.6106761E-02  (-0.8661866E-02)
 number of electron      57.9999999 magnetization       7.6153278
 augmentation part        0.3826478 magnetization       5.3590268

 Broyden mixing:
  rms(total) = 0.10520E+00    rms(broyden)= 0.10520E+00
  rms(prec ) = 0.11510E+00
  weight for this iteration     100.00

 eigenvalues of (default mixing * dielectric matrix)
  average eigenvalue GAMMA=   1.0034
  2.2620  1.2041  1.2041  1.0535  0.4399  0.4399  0.7119  0.7119

 Free energy of the ion-electron system (eV)
  ---------------------------------------------------
  alpha Z        PSCENC =        24.19628403
  Ewald energy   TEWEN  =      6490.34799790
  -Hartree energ DENC   =     -8891.24574490
  -exchange      EXHF   =         0.00000000
  -V(xc)+E(xc)   XCENC  =        32.43241781
  PAW double counting   =      1302.44772699    -1221.49590525
  entropy T*S    EENTRO =         0.00000000
  eigenvalues    EBANDS =      -498.80680123
  atomic energy  EATOM  =      2716.00809441
  Solvation  Ediel_sol  =         0.00000000
  ---------------------------------------------------
  free energy    TOTEN  =       -46.11593023 eV

  energy without entropy =      -46.11593023  energy(sigma->0) =      -46.11593023


--------------------------------------------------------------------------------------------------------




--------------------------------------- Iteration      1(  14)  ---------------------------------------


    POTLOK:  cpu time   52.2320: real time   52.3050
    SETDIJ:  cpu time    0.0400: real time    0.0426
     EDDAV:  cpu time   29.8640: real time   29.9590
 BZINTS: Fermi energy: -4.225034; 58.000000 electrons
         Band energy:-498.141746;  BLOECHL correction: -0.009579
       DOS:  cpu time    0.0040: real time    0.0075
    CHARGE:  cpu time    1.9640: real time    1.9817
    MIXING:  cpu time    0.0480: real time    0.0467
    --------------------------------------------
      LOOP:  cpu time   84.1520: real time   84.3424

 eigenvalue-minimisations  :  1312
 total energy-change (2. order) : 0.3654286E-02  (-0.4753899E-02)
 number of electron      57.9999998 magnetization       7.6617515
 augmentation part        0.2607518 magnetization       5.3899443

 Broyden mixing:
  rms(total) = 0.46059E-01    rms(broyden)= 0.46045E-01
  rms(prec ) = 0.46786E-01
  weight for this iteration     100.00

 eigenvalues of (default mixing * dielectric matrix)
  average eigenvalue GAMMA=   1.0003
  2.4227  1.2031  1.2031  1.0782  0.4398  0.4398  0.7993  0.7993  0.6177

 Free energy of the ion-electron system (eV)
  ---------------------------------------------------
  alpha Z        PSCENC =        24.19628403
  Ewald energy   TEWEN  =      6490.34799790
  -Hartree energ DENC   =     -8891.68412336
  -exchange      EXHF   =         0.00000000
  -V(xc)+E(xc)   XCENC  =        32.18643450
  PAW double counting   =      1305.39310905    -1224.41832614
  entropy T*S    EENTRO =         0.00000000
  eigenvalues    EBANDS =      -498.14174635
  atomic energy  EATOM  =      2716.00809441
  Solvation  Ediel_sol  =         0.00000000
  ---------------------------------------------------
  free energy    TOTEN  =       -46.11227594 eV

  energy without entropy =      -46.11227594  energy(sigma->0) =      -46.11227594


--------------------------------------------------------------------------------------------------------




--------------------------------------- Iteration      1(  15)  ---------------------------------------


    POTLOK:  cpu time   52.3560: real time   52.4014
    SETDIJ:  cpu time    0.0440: real time    0.0448
     EDDAV:  cpu time   31.9080: real time   32.0667
 BZINTS: Fermi energy: -4.205357; 58.000000 electrons
         Band energy:-497.443717;  BLOECHL correction: -0.009426
       DOS:  cpu time    0.0080: real time    0.0068
    CHARGE:  cpu time    1.9800: real time    1.9904
    MIXING:  cpu time    0.0480: real time    0.0484
    --------------------------------------------
      LOOP:  cpu time   86.3440: real time   86.5584

 eigenvalue-minimisations  :  1408
 total energy-change (2. order) :-0.2273811E-02  (-0.2226502E-02)
 number of electron      57.9999998 magnetization       7.7287578
 augmentation part        0.2167118 magnetization       5.4423699

 Broyden mixing:
  rms(total) = 0.51254E-01    rms(broyden)= 0.51252E-01
  rms(prec ) = 0.53287E-01
  weight for this iteration     100.00

 eigenvalues of (default mixing * dielectric matrix)
  average eigenvalue GAMMA=   1.0821
  2.2100  2.2100  1.1993  1.1993  0.4398  0.4398  0.8823  0.8823  0.7228  0.6349

 Free energy of the ion-electron system (eV)
  ---------------------------------------------------
  alpha Z        PSCENC =        24.19628403
  Ewald energy   TEWEN  =      6490.34799790
  -Hartree energ DENC   =     -8892.35249252
  -exchange      EXHF   =         0.00000000
  -V(xc)+E(xc)   XCENC  =        32.17849764
  PAW double counting   =      1307.55854920    -1226.60776312
  entropy T*S    EENTRO =         0.00000000
  eigenvalues    EBANDS =      -497.44371730
  atomic energy  EATOM  =      2716.00809441
  Solvation  Ediel_sol  =         0.00000000
  ---------------------------------------------------
  free energy    TOTEN  =       -46.11454975 eV

  energy without entropy =      -46.11454975  energy(sigma->0) =      -46.11454975


--------------------------------------------------------------------------------------------------------




--------------------------------------- Iteration      1(  16)  ---------------------------------------


    POTLOK:  cpu time   52.1160: real time   52.2194
    SETDIJ:  cpu time    0.0480: real time    0.0456
     EDDAV:  cpu time   27.4040: real time   27.6117
 BZINTS: Fermi energy: -4.193700; 58.000000 electrons
         Band energy:-496.920548;  BLOECHL correction: -0.009316
       DOS:  cpu time    0.0040: real time    0.0078
    CHARGE:  cpu time    1.9960: real time    2.0159
    MIXING:  cpu time    0.0520: real time    0.0509
    --------------------------------------------
      LOOP:  cpu time   81.6200: real time   81.9513

 eigenvalue-minimisations  :  1200
 total energy-change (2. order) :-0.4509421E-02  (-0.7112478E-03)
 number of electron      57.9999998 magnetization       7.7835051
 augmentation part        0.1957002 magnetization       5.4826460

 Broyden mixing:
  rms(total) = 0.79562E-01    rms(broyden)= 0.79561E-01
  rms(prec ) = 0.82507E-01
  weight for this iteration     100.00

 eigenvalues of (default mixing * dielectric matrix)
  average eigenvalue GAMMA=   1.1259
  2.5197  2.5197  1.2010  1.2010  1.0122  1.0122  0.4398  0.4398  0.7069  0.7069
  0.6258

 Free energy of the ion-electron system (eV)
  ---------------------------------------------------
  alpha Z        PSCENC =        24.19628403
  Ewald energy   TEWEN  =      6490.34799790
  -Hartree energ DENC   =     -8892.79521552
  -exchange      EXHF   =         0.00000000
  -V(xc)+E(xc)   XCENC  =        32.06333753
  PAW double counting   =      1309.58129889    -1228.60030815
  entropy T*S    EENTRO =         0.00000000
  eigenvalues    EBANDS =      -496.92054827
  atomic energy  EATOM  =      2716.00809441
  Solvation  Ediel_sol  =         0.00000000
  ---------------------------------------------------
  free energy    TOTEN  =       -46.11905918 eV

  energy without entropy =      -46.11905918  energy(sigma->0) =      -46.11905918


--------------------------------------------------------------------------------------------------------




--------------------------------------- Iteration      1(  17)  ---------------------------------------


    POTLOK:  cpu time   52.4920: real time   52.5986
    SETDIJ:  cpu time    0.0440: real time    0.0436
     EDDAV:  cpu time   27.6680: real time   28.3143
 BZINTS: Fermi energy: -4.205697; 58.000000 electrons
         Band energy:-497.371909;  BLOECHL correction: -0.009436
       DOS:  cpu time    0.0080: real time    0.0074
    CHARGE:  cpu time    1.9840: real time    2.0031
    MIXING:  cpu time    0.0520: real time    0.0521
    --------------------------------------------
      LOOP:  cpu time   82.2480: real time   83.0192

 eigenvalue-minimisations  :  1232
 total energy-change (2. order) : 0.1014392E-02  (-0.4268825E-03)
 number of electron      57.9999998 magnetization       7.8516793
 augmentation part        0.2180465 magnetization       5.5579388

 Broyden mixing:
  rms(total) = 0.58615E-01    rms(broyden)= 0.58615E-01
  rms(prec ) = 0.60170E-01
  weight for this iteration     100.00

 eigenvalues of (default mixing * dielectric matrix)
  average eigenvalue GAMMA=   1.1757
  2.8150  2.6233  1.2028  1.2028  1.2468  1.2468  0.4398  0.4398  0.7918  0.7918
  0.6916  0.6165

 Free energy of the ion-electron system (eV)
  ---------------------------------------------------
  alpha Z        PSCENC =        24.19628403
  Ewald energy   TEWEN  =      6490.34799790
  -Hartree energ DENC   =     -8892.40959330
  -exchange      EXHF   =         0.00000000
  -V(xc)+E(xc)   XCENC  =        32.13920715
  PAW double counting   =      1309.04478295    -1228.07290882
  entropy T*S    EENTRO =         0.00000000
  eigenvalues    EBANDS =      -497.37190909
  atomic energy  EATOM  =      2716.00809441
  Solvation  Ediel_sol  =         0.00000000
  ---------------------------------------------------
  free energy    TOTEN  =       -46.11804478 eV

  energy without entropy =      -46.11804478  energy(sigma->0) =      -46.11804478


--------------------------------------------------------------------------------------------------------




--------------------------------------- Iteration      1(  18)  ---------------------------------------


    POTLOK:  cpu time   51.6760: real time   52.2219
    SETDIJ:  cpu time    0.0440: real time    0.0447
     EDDAV:  cpu time   33.0080: real time   33.5874
 BZINTS: Fermi energy: -4.220106; 58.000000 electrons
         Band energy:-497.976697;  BLOECHL correction: -0.009537
       DOS:  cpu time    0.0040: real time    0.0078
    CHARGE:  cpu time    2.0280: real time    2.0281
    MIXING:  cpu time    0.0680: real time    0.0686
    --------------------------------------------
      LOOP:  cpu time   86.8280: real time   87.9585

 eigenvalue-minimisations  :  1488
 total energy-change (2. order) :-0.1572240E-02  (-0.2065482E-03)
 number of electron      57.9999998 magnetization       7.9428436
 augmentation part        0.2369869 magnetization       5.6596351

 Broyden mixing:
  rms(total) = 0.34146E-01    rms(broyden)= 0.34146E-01
  rms(prec ) = 0.34834E-01
  weight for this iteration     100.00

 eigenvalues of (default mixing * dielectric matrix)
  average eigenvalue GAMMA=   1.3512
  4.9800  2.4815  1.2030  1.2030  1.5019  1.5019  0.4398  0.4398  0.9020  0.9020
  0.7015  0.7015  0.6083

 Free energy of the ion-electron system (eV)
  ---------------------------------------------------
  alpha Z        PSCENC =        24.19628403
  Ewald energy   TEWEN  =      6490.34799790
  -Hartree energ DENC   =     -8891.88459823
  -exchange      EXHF   =         0.00000000
  -V(xc)+E(xc)   XCENC  =        32.23844306
  PAW double counting   =      1308.27528745    -1227.32442879
  entropy T*S    EENTRO =         0.00000000
  eigenvalues    EBANDS =      -497.97669686
  atomic energy  EATOM  =      2716.00809441
  Solvation  Ediel_sol  =         0.00000000
  ---------------------------------------------------
  free energy    TOTEN  =       -46.11961702 eV

  energy without entropy =      -46.11961702  energy(sigma->0) =      -46.11961702


--------------------------------------------------------------------------------------------------------




--------------------------------------- Iteration      1(  19)  ---------------------------------------


    POTLOK:  cpu time   52.0000: real time   52.1794
    SETDIJ:  cpu time    0.0440: real time    0.0436
     EDDAV:  cpu time   27.0080: real time   27.2647
 BZINTS: Fermi energy: -4.236150; 58.000000 electrons
         Band energy:-498.709253;  BLOECHL correction: -0.009596
       DOS:  cpu time    0.0040: real time    0.0074
    CHARGE:  cpu time    1.9880: real time    1.9933
    MIXING:  cpu time    0.0680: real time    0.0657
    --------------------------------------------
      LOOP:  cpu time   81.1120: real time   81.5542

 eigenvalue-minimisations  :  1184
 total energy-change (2. order) :-0.9715627E-03  (-0.1652568E-03)
 number of electron      57.9999998 magnetization       7.9865488
 augmentation part        0.2498065 magnetization       5.7122363

 Broyden mixing:
  rms(total) = 0.12959E-01    rms(broyden)= 0.12958E-01
  rms(prec ) = 0.13223E-01
  weight for this iteration     100.00

 eigenvalues of (default mixing * dielectric matrix)
  average eigenvalue GAMMA=   1.5163
  7.4142  2.5123  1.2027  1.2027  1.5573  1.5573  0.4398  0.4398  1.0879  0.9803
  0.7698  0.7698  0.6152  0.6784

 Free energy of the ion-electron system (eV)
  ---------------------------------------------------
  alpha Z        PSCENC =        24.19628403
  Ewald energy   TEWEN  =      6490.34799790
  -Hartree energ DENC   =     -8891.21869765
  -exchange      EXHF   =         0.00000000
  -V(xc)+E(xc)   XCENC  =        32.32531538
  PAW double counting   =      1307.54265471    -1226.61298475
  entropy T*S    EENTRO =         0.00000000
  eigenvalues    EBANDS =      -498.70925262
  atomic energy  EATOM  =      2716.00809441
  Solvation  Ediel_sol  =         0.00000000
  ---------------------------------------------------
  free energy    TOTEN  =       -46.12058859 eV

  energy without entropy =      -46.12058859  energy(sigma->0) =      -46.12058859


--------------------------------------------------------------------------------------------------------




--------------------------------------- Iteration      1(  20)  ---------------------------------------


    POTLOK:  cpu time   52.2000: real time   52.3388
    SETDIJ:  cpu time    0.0440: real time    0.0429
     EDDAV:  cpu time   28.4720: real time   28.6014
 BZINTS: Fermi energy: -4.241967; 58.000000 electrons
         Band energy:-499.000925;  BLOECHL correction: -0.009609
       DOS:  cpu time    0.0040: real time    0.0073
    CHARGE:  cpu time    1.9800: real time    1.9788
    MIXING:  cpu time    0.0560: real time    0.0566
    --------------------------------------------
      LOOP:  cpu time   82.7560: real time   83.0258

 eigenvalue-minimisations  :  1232
 total energy-change (2. order) :-0.2405075E-03  (-0.4210697E-04)
 number of electron      57.9999998 magnetization       7.9946486
 augmentation part        0.2517253 magnetization       5.7240457

 Broyden mixing:
  rms(total) = 0.34110E-02    rms(broyden)= 0.34105E-02
  rms(prec ) = 0.39723E-02
  weight for this iteration     100.00

 eigenvalues of (default mixing * dielectric matrix)
  average eigenvalue GAMMA=   1.5718
  8.3618  2.5920  1.2026  1.2026  1.7201  1.7201  1.1402  1.1402  0.4398  0.4398
  0.7854  0.7854  0.7824  0.6522  0.6121

 Free energy of the ion-electron system (eV)
  ---------------------------------------------------
  alpha Z        PSCENC =        24.19628403
  Ewald energy   TEWEN  =      6490.34799790
  -Hartree energ DENC   =     -8890.95730034
  -exchange      EXHF   =         0.00000000
  -V(xc)+E(xc)   XCENC  =        32.37311383
  PAW double counting   =      1307.50565926    -1226.59375304
  entropy T*S    EENTRO =         0.00000000
  eigenvalues    EBANDS =      -499.00092514
  atomic energy  EATOM  =      2716.00809441
  Solvation  Ediel_sol  =         0.00000000
  ---------------------------------------------------
  free energy    TOTEN  =       -46.12082909 eV

  energy without entropy =      -46.12082909  energy(sigma->0) =      -46.12082909


--------------------------------------------------------------------------------------------------------




--------------------------------------- Iteration      1(  21)  ---------------------------------------


    POTLOK:  cpu time   51.0040: real time   52.3939
    SETDIJ:  cpu time    0.0360: real time    0.0368
     EDDAV:  cpu time   21.8520: real time   22.1765
 BZINTS: Fermi energy: -4.245251; 58.000000 electrons
         Band energy:-499.177301;  BLOECHL correction: -0.009613
       DOS:  cpu time    0.0040: real time    0.0052
    --------------------------------------------
      LOOP:  cpu time   72.8960: real time   74.6124

 eigenvalue-minimisations  :   896
 total energy-change (2. order) : 0.4179562E-04  (-0.6901364E-05)
 number of electron      57.9999998 magnetization       7.9946486
 augmentation part        0.2517253 magnetization       5.7240457

 Free energy of the ion-electron system (eV)
  ---------------------------------------------------
  alpha Z        PSCENC =        24.19628403
  Ewald energy   TEWEN  =      6490.34799790
  -Hartree energ DENC   =     -8890.78163785
  -exchange      EXHF   =         0.00000000
  -V(xc)+E(xc)   XCENC  =        32.37419234
  PAW double counting   =      1307.49456009    -1226.58297748
  entropy T*S    EENTRO =         0.00000000
  eigenvalues    EBANDS =      -499.17730074
  atomic energy  EATOM  =      2716.00809441
  Solvation  Ediel_sol  =         0.00000000
  ---------------------------------------------------
  free energy    TOTEN  =       -46.12078730 eV

  energy without entropy =      -46.12078730  energy(sigma->0) =      -46.12078730


--------------------------------------------------------------------------------------------------------




 average (electrostatic) potential at core
  the test charge radii are     1.0210  1.1631  0.9698
  (the norm of the test charge is              1.0000)
       1 -54.2691       2 -54.2691       3 -41.4065       4 -41.4065       5 -95.1606
       6 -95.1606       7 -95.1606       8 -95.1606       9 -95.1606      10 -95.1606



 E-fermi :  -4.2453     XC(G=0):  -2.8545     alpha+bet : -2.0447


 spin component 1

 k-point     1 :       0.0000    0.0000    0.0000
  band No.  band energies     occupation 
      1     -16.4216      1.00000
      2     -15.9065      1.00000
      3     -15.4415      1.00000
      4     -15.4415      1.00000
      5     -15.4056      1.00000
      6     -15.4055      1.00000
      7     -12.8505      1.00000
      8     -10.4335      1.00000
      9      -7.8384      1.00000
     10      -7.8384      1.00000
     11      -7.7272      1.00000
     12      -7.6597      1.00000
     13      -7.4462      1.00000
     14      -7.4462      1.00000
     15      -7.1739      1.00000
     16      -7.1739      1.00000
     17      -6.9534      1.00000
     18      -6.9534      1.00000
     19      -6.7629      1.00000
     20      -6.4690      1.00000
     21      -6.4594      1.00000
     22      -6.3867      1.00000
     23      -6.3867      1.00000
     24      -6.3792      1.00000
     25      -6.3792      1.00000
     26      -5.4967      1.00000
     27      -5.4966      1.00000
     28      -5.2843      1.00000
     29      -5.1246      1.00000
     30      -4.7983      1.00000
     31      -4.7983      1.00000
     32      -4.2433      0.99334
     33      -4.2433      0.00000
     34      -3.9390      0.00000
     35      -3.9390      0.00000
     36      -3.7826      0.00000
     37      -3.2932      0.00000
     38      -1.1696      0.00000
     39      -1.1696      0.00000
     40       0.0070      0.00000
     41       0.0415      0.00000
     42       0.5872      0.00000
     43       0.5872      0.00000
     44       0.7741      0.00000
     45       1.6424      0.00000
     46       1.6678      0.00000
     47       2.1573      0.00000
     48       2.1574      0.00000

 k-point     2 :       0.2000    0.0000    0.0000
  band No.  band energies     occupation 
      1     -16.3421      1.00000
      2     -15.8562      1.00000
      3     -15.5290      1.00000
      4     -15.4801      1.00000
      5     -15.4465      1.00000
      6     -15.4271      1.00000
      7     -12.8204      1.00000
      8     -10.4718      1.00000
      9      -7.8324      1.00000
     10      -7.7764      1.00000
     11      -7.7179      1.00000
     12      -7.5014      1.00000
     13      -7.3202      1.00000
     14      -7.2454      1.00000
     15      -7.1724      1.00000
     16      -7.1320      1.00000
     17      -7.0254      1.00000
     18      -6.9751      1.00000
     19      -6.8075      1.00000
     20      -6.6065      1.00000
     21      -6.5359      1.00000
     22      -6.3785      1.00000
     23      -6.2914      1.00000
     24      -6.2803      1.00000
     25      -6.0124      1.00000
     26      -5.6592      1.00000
     27      -5.6096      1.00000
     28      -5.2967      1.00000
     29      -5.2235      1.00000
     30      -5.1584      1.00000
     31      -4.9518      1.00000
     32      -4.4253      1.00105
     33      -4.2432      0.15792
     34      -4.1886      0.00000
     35      -4.0134      0.00000
     36      -3.4155      0.00000
     37      -2.9726      0.00000
     38      -1.2845      0.00000
     39      -1.1956      0.00000
     40      -0.0050      0.00000
     41       0.0833      0.00000
     42       0.2810      0.00000
     43       0.5636      0.00000
     44       0.6857      0.00000
     45       1.6132      0.00000
     46       1.6580      0.00000
     47       2.1786      0.00000
     48       2.1913      0.00000

 k-point     3 :       0.4000    0.0000    0.0000
  band No.  band energies     occupation 
      1     -16.1366      1.00000
      2     -15.7674      1.00000
      3     -15.7337      1.00000
      4     -15.5461      1.00000
      5     -15.5004      1.00000
      6     -15.4927      1.00000
      7     -12.7687      1.00000
      8     -10.5226      1.00000
      9      -7.7959      1.00000
     10      -7.6696      1.00000
     11      -7.4535      1.00000
     12      -7.2596      1.00000
     13      -7.2217      1.00000
     14      -7.2052      1.00000
     15      -7.1479      1.00000
     16      -7.1131      1.00000
     17      -7.0041      1.00000
     18      -6.9851      1.00000
     19      -6.8041      1.00000
     20      -6.6959      1.00000
     21      -6.5951      1.00000
     22      -6.3719      1.00000
     23      -6.2256      1.00000
     24      -6.1039      1.00000
     25      -6.0536      1.00000
     26      -5.8062      1.00000
     27      -5.6287      1.00000
     28      -5.4538      1.00000
     29      -5.3435      1.00000
     30      -5.2662      1.00000
     31      -5.1250      1.00000
     32      -4.4432      1.00000
     33      -4.2339      0.35531
     34      -4.2234      0.16364
     35      -4.1940      0.00000
     36      -3.5627      0.00000
     37      -2.7778      0.00000
     38      -1.3336      0.00000
     39      -1.3327      0.00000
     40      -0.3021      0.00000
     41      -0.0376      0.00000
     42       0.2551      0.00000
     43       0.4847      0.00000
     44       0.5849      0.00000
     45       1.6951      0.00000
     46       1.8604      0.00000
     47       2.2708      0.00000
     48       2.2757      0.00000

 k-point     4 :       0.4000    0.2000    0.0000
  band No.  band energies     occupation 
      1     -16.1972      1.00000
      2     -15.7691      1.00000
      3     -15.6400      1.00000
      4     -15.5956      1.00000
[...]
     34      -1.0091      0.00000
     35      -0.9111      0.00000
     36      -0.7991      0.00000
     37      -0.2106      0.00000
     38       0.9407      0.00000
     39       1.1811      0.00000
     40       1.5717      0.00000
     41       1.8112      0.00000
     42       2.1230      0.00000
     43       2.2802      0.00000
     44       2.3125      0.00000
     45       2.9963      0.00000
     46       3.0336      0.00000
     47       3.4872      0.00000
     48       3.5131      0.00000

 k-point     5 :      -0.4000    0.2000    0.0000
  band No.  band energies     occupation 
      1     -16.7519      1.00000
      2     -16.3769      1.00000
      3     -16.0768      1.00000
      4     -15.9830      1.00000
      5     -15.7802      1.00000
      6     -15.6208      1.00000
      7     -11.6413      1.00000
      8     -10.2562      1.00000
      9      -8.1904      1.00000
     10      -7.7498      1.00000
     11      -7.6542      1.00000
     12      -7.2147      1.00000
     13      -6.9623      1.00000
     14      -6.6581      1.00000
     15      -6.4239      1.00000
     16      -6.1010      1.00000
     17      -6.0165      1.00000
     18      -5.9478      1.00000
     19      -5.8994      1.00000
     20      -5.6302      1.00000
     21      -5.5544      1.00000
     22      -4.8994      1.00000
     23      -4.7799      1.00000
     24      -4.7067      1.00000
     25      -4.1326      1.00000
     26      -3.1144      1.00000
     27      -2.5799      0.00000
     28      -2.4947      0.00000
     29      -2.1755      0.00000
     30      -1.9290      0.00000
     31      -1.8947      0.00000
     32      -1.7269      0.00000
     33      -1.2068      0.00000
     34      -1.1930      0.00000
     35      -0.9325      0.00000
     36      -0.8678      0.00000
     37      -0.0686      0.00000
     38       0.7480      0.00000
     39       0.8750      0.00000
     40       1.6059      0.00000
     41       1.6617      0.00000
     42       1.7238      0.00000
     43       2.6740      0.00000
     44       2.7880      0.00000
     45       2.8908      0.00000
     46       2.9425      0.00000
     47       3.3536      0.00000
     48       3.7311      0.00000


--------------------------------------------------------------------------------------------------------


 soft charge-density along one line, spin component           1
         0         1         2         3         4         5         6         7         8         9
 total charge-density along one line

 soft charge-density along one line, spin component           2
         0         1         2         3         4         5         6         7         8         9
 total charge-density along one line

 pseudopotential strength for first ion, spin component:           1
-11.895   0.053  -0.000   0.000  -0.000   0.832  -0.012   0.000
  0.053 -11.800   0.000  -0.000   0.000  -0.012   0.811  -0.000
 -0.000   0.000 -11.948   0.000   0.000   0.000  -0.000   0.845
  0.000  -0.000   0.000 -11.800  -0.053  -0.000   0.000  -0.000
 -0.000   0.000   0.000  -0.053 -11.894   0.000  -0.000  -0.000
  0.832  -0.012   0.000  -0.000   0.000   0.304   0.002  -0.000
 -0.012   0.811  -0.000   0.000  -0.000   0.002   0.309   0.000
  0.000  -0.000   0.845  -0.000  -0.000  -0.000   0.000   0.302
 -0.000   0.000  -0.000   0.811   0.012   0.000  -0.000   0.000
  0.000  -0.000  -0.000   0.012   0.832  -0.000   0.000   0.000
  0.000  -0.000  -0.003  -0.000   0.000  -0.000   0.000   0.001
 -0.000   0.000   0.000   0.000  -0.000   0.000  -0.000  -0.000
  0.000   0.000   0.000  -0.000   0.001  -0.000  -0.000  -0.000
 -0.000  -0.000   0.000  -0.000  -0.000   0.000   0.000  -0.000
  0.001  -0.000   0.000   0.000  -0.000  -0.000   0.000  -0.000
 -0.000  -0.000  -0.000   0.000  -0.001   0.000   0.000   0.000
  0.000   0.000  -0.000   0.000   0.000  -0.000  -0.000   0.000
 -0.001   0.000  -0.000  -0.000   0.000   0.000  -0.000   0.000
 pseudopotential strength for first ion, spin component:           2
 -9.998  -0.105  -0.000  -0.000   0.000   0.381   0.023   0.000
 -0.105 -10.133   0.000  -0.000  -0.000   0.023   0.411  -0.000
 -0.000   0.000  -9.868   0.000   0.000   0.000  -0.000   0.353
 -0.000  -0.000   0.000 -10.133   0.105   0.000   0.000  -0.000
  0.000  -0.000   0.000   0.105  -9.998  -0.000   0.000  -0.000
  0.381   0.023   0.000   0.000  -0.000   0.409  -0.005  -0.000
  0.023   0.411  -0.000   0.000   0.000  -0.005   0.403   0.000
  0.000  -0.000   0.353  -0.000  -0.000  -0.000   0.000   0.415
  0.000   0.000  -0.000   0.411  -0.023  -0.000  -0.000   0.000
 -0.000   0.000  -0.000  -0.023   0.381   0.000  -0.000   0.000
 -0.000  -0.000   0.002  -0.000   0.000  -0.000   0.000  -0.000
  0.000   0.000  -0.000   0.000  -0.000  -0.000  -0.000  -0.000
 -0.000   0.000   0.000  -0.000  -0.001   0.000  -0.000  -0.000
 -0.000  -0.000   0.000  -0.000   0.000   0.000   0.000  -0.000
 -0.001  -0.000   0.000   0.000   0.000   0.000   0.000  -0.000
  0.000  -0.000  -0.000   0.000   0.000  -0.000   0.000   0.000
  0.000   0.000  -0.000   0.000  -0.000  -0.000  -0.000   0.000
  0.000   0.000  -0.000  -0.000   0.000  -0.000  -0.000   0.000
 total augmentation occupancy for first ion, spin component:           1
  1.102  -0.026   0.000  -0.000  -0.000  -0.063   0.165  -0.000   0.000  -0.000  -0.000  -0.000   0.000   0.000   0.006  -0.000
 -0.026   1.137  -0.000  -0.000  -0.000   0.165   0.105   0.000   0.000   0.000   0.000   0.000   0.000  -0.000  -0.002   0.000
  0.000  -0.000   1.084  -0.000  -0.000  -0.000   0.000  -0.186   0.000   0.000  -0.011  -0.024  -0.000   0.000   0.000   0.000
 -0.000  -0.000  -0.000   1.137   0.026   0.000  -0.000   0.000   0.105  -0.165   0.000   0.000   0.002   0.000   0.000  -0.000
 -0.000  -0.000  -0.000   0.026   1.102   0.000   0.000   0.000  -0.165  -0.063   0.000   0.000   0.006  -0.000  -0.000  -0.000
 -0.063   0.165  -0.000   0.000   0.000   0.215   0.096   0.000   0.000  -0.000   0.000  -0.000   0.000  -0.000   0.025  -0.000
  0.165   0.105   0.000  -0.000   0.000   0.096   0.323   0.000  -0.000   0.000  -0.000  -0.000   0.000   0.000  -0.004  -0.000
 -0.000   0.000  -0.186   0.000   0.000   0.000   0.000   0.202   0.000  -0.000   0.046  -0.009  -0.000  -0.000   0.000   0.000
  0.000   0.000   0.000   0.105  -0.165   0.000  -0.000   0.000   0.323  -0.096   0.000   0.000   0.004  -0.000   0.000  -0.000
 -0.000   0.000   0.000  -0.165  -0.063  -0.000   0.000  -0.000  -0.096   0.215  -0.000   0.000   0.025   0.000  -0.000  -0.002
 -0.000  -0.000  -0.011   0.000   0.000   0.000  -0.000   0.046   0.000  -0.000   1.067  -0.198   0.000   0.000  -0.000   0.000
 -0.000   0.000  -0.024  -0.000   0.000  -0.000  -0.000  -0.009   0.000   0.000  -0.198   0.094   0.000   0.000   0.000  -0.000
  0.000   0.000  -0.000   0.002   0.006   0.000   0.000  -0.000   0.004   0.025  -0.000  -0.000   0.163  -0.000  -0.000  -0.006
  0.000  -0.000   0.000   0.000  -0.000  -0.000   0.000  -0.000  -0.000   0.000   0.000   0.000  -0.000   0.176   0.000   0.000
  0.006  -0.002   0.000   0.000  -0.000   0.025  -0.004   0.000   0.000  -0.000   0.000   0.000  -0.000   0.000   0.163   0.000
 -0.000   0.000   0.000  -0.000  -0.000  -0.000  -0.000   0.000  -0.000  -0.002   0.000   0.000  -0.006   0.000   0.000   0.000
  0.000   0.000   0.000  -0.000  -0.000  -0.000   0.000  -0.000   0.000   0.000   0.000  -0.000   0.000  -0.007   0.000  -0.000
 -0.000   0.000  -0.000   0.000   0.000  -0.002   0.000  -0.000  -0.000   0.000  -0.000   0.000  -0.000   0.000  -0.006  -0.000
 total augmentation occupancy for first ion, spin component:           2
  0.711  -0.168   0.000  -0.000  -0.000  -0.272   0.015  -0.000   0.000   0.000  -0.000  -0.000  -0.000   0.000  -0.008  -0.000
 -0.168   0.479  -0.000  -0.000  -0.000   0.019  -0.252   0.000   0.000   0.000   0.000   0.000   0.000   0.000   0.007   0.000
  0.000  -0.000   0.871  -0.000  -0.000  -0.000   0.000  -0.316   0.000   0.000  -0.024  -0.012   0.000   0.000  -0.000  -0.000
 -0.000  -0.000  -0.000   0.479   0.168   0.000  -0.000   0.000  -0.252  -0.019   0.000  -0.000  -0.007   0.000   0.000   0.000
 -0.000  -0.000  -0.000   0.168   0.711  -0.000   0.000   0.000  -0.015  -0.272   0.000   0.000  -0.008  -0.000   0.000   0.001
 -0.272   0.019  -0.000   0.000  -0.000   0.056  -0.021   0.000  -0.000  -0.000   0.000   0.000   0.000  -0.000   0.001   0.000
  0.015  -0.252   0.000  -0.000   0.000  -0.021   0.040  -0.000  -0.000  -0.000  -0.000  -0.000  -0.000   0.000  -0.001  -0.000
 -0.000   0.000  -0.316   0.000   0.000   0.000  -0.000   0.098  -0.000  -0.000   0.010   0.007  -0.000  -0.000   0.000   0.000
  0.000   0.000   0.000  -0.252  -0.015  -0.000  -0.000  -0.000   0.040   0.021   0.000   0.000   0.001  -0.000  -0.000  -0.000
  0.000   0.000   0.000  -0.019  -0.272  -0.000  -0.000  -0.000   0.021   0.056  -0.000  -0.000   0.001   0.000  -0.000  -0.000
 -0.000   0.000  -0.024   0.000   0.000   0.000  -0.000   0.010   0.000  -0.000   0.144   0.092   0.000  -0.000   0.000  -0.000
 -0.000   0.000  -0.012  -0.000   0.000   0.000  -0.000   0.007  -0.000  -0.000   0.092  -0.033   0.000   0.000  -0.000  -0.000
 -0.000   0.000   0.000  -0.007  -0.008   0.000  -0.000  -0.000   0.001   0.001  -0.000  -0.000   0.016  -0.000  -0.000   0.000
  0.000  -0.000   0.000   0.000  -0.000  -0.000   0.000  -0.000   0.000   0.000  -0.000   0.000  -0.000   0.014  -0.000  -0.000
 -0.008   0.007  -0.000   0.000   0.000   0.001  -0.001   0.000  -0.000  -0.000   0.000   0.000  -0.000  -0.000   0.016   0.000
 -0.000   0.000  -0.000   0.000   0.001   0.000  -0.000   0.000  -0.000  -0.000   0.000   0.000   0.000  -0.000   0.000  -0.000
  0.000  -0.000   0.000  -0.000  -0.000  -0.000   0.000  -0.000   0.000   0.000   0.000   0.000  -0.000   0.000  -0.000   0.000
  0.001  -0.000   0.000   0.000   0.000  -0.000   0.000  -0.000  -0.000  -0.000  -0.000   0.000  -0.000   0.000   0.000   0.000


------------------------ aborting loop because EDIFF is reached ----------------------------------------





 total charge     

# of ion       s       p       d       tot
------------------------------------------
    1        0.274   0.330   4.949   5.554
    2        0.274   0.330   4.949   5.554
    3        1.138   1.164   0.125   2.427
    4        1.138   1.164   0.125   2.427
    5        1.375   2.311   0.000   3.686
    6        1.369   2.326   0.000   3.695
    7        1.372   2.312   0.000   3.685
    8        1.375   2.311   0.000   3.686
    9        1.369   2.326   0.000   3.695
   10        1.372   2.312   0.000   3.685
--------------------------------------------------
tot         11.056  16.889  10.147  38.093



 magnetization (x)

# of ion       s       p       d       tot
------------------------------------------
    1        0.026   0.029   3.098   3.154
    2        0.026   0.029   3.098   3.154
    3       -0.002   0.019   0.002   0.019
    4       -0.002   0.019   0.002   0.019
    5        0.006  -0.053   0.000  -0.047
    6        0.006  -0.031   0.000  -0.025
    7        0.004  -0.047   0.000  -0.043
    8        0.006  -0.053   0.000  -0.047
    9        0.006  -0.031   0.000  -0.025
   10        0.004  -0.047   0.000  -0.043
--------------------------------------------------
tot          0.082  -0.166   6.200   6.116

    CHARGE:  cpu time    1.9720: real time    1.9802
    FORLOC:  cpu time    0.0560: real time    0.0545
    FORNL :  cpu time    6.7280: real time    6.7485
    STRESS:  cpu time   20.1720: real time   20.3807
    FORCOR:  cpu time   52.4240: real time   52.7824
    FORHAR:  cpu time    0.3280: real time    0.3284
    MIXING:  cpu time    0.0440: real time    0.0421
    OFIELD:  cpu time    0.0000: real time    0.0000

  FORCE on cell =-STRESS in cart. coord.  units (eV):
  Direction    XX          YY          ZZ          XY          YZ          ZX
  --------------------------------------------------------------------------------------
  Alpha Z    32.01073    32.01073    32.01073
  Ewald   11096.56107 11096.55881-12857.38604    -0.00154    -0.00044    -0.00080
  Hartree 11504.39477 11504.39526-11242.31354    -0.00018     0.00004     0.00006
  E(xc)    -225.24773  -225.24776  -224.88340     0.00004     0.00001     0.00000
  Local  -23465.87956-23465.87908 23198.68581     0.00130     0.00023     0.00043
  n-local   430.78874   432.66402   434.63347     1.06628     1.19511     1.20670
  augment   -39.63481   -39.63496   -42.40278     0.00018    -0.00022     0.00016
  Kinetic   670.08710   662.11621   701.69628    -4.91415    -2.10312    -1.87306
  Fock        0.00000     0.00000     0.00000     0.00000     0.00000     0.00000
  -------------------------------------------------------------------------------------
  Total       0.03178     0.03178     0.04053    -0.00000     0.00000     0.00000
  in kB       0.06952     0.06952     0.08867    -0.00000     0.00000     0.00000
  external pressure =        0.08 kB  Pullay stress =        0.00 kB


 VOLUME and BASIS-vectors are now :
 -----------------------------------------------------------------------------
  energy-cutoff  :      520.00
  volume of cell :      732.32
      direct lattice vectors                 reciprocal lattice vectors
     6.046365019 -0.000000071 -0.000000000     0.165388624 -0.095487164 -0.000000000
     3.023182258  5.236305443  0.000000000     0.000000002  0.190974343  0.000000000
    -0.000000000 -0.000000000 23.130422442     0.000000000 -0.000000000  0.043233106

  length of vectors
     6.046365019  6.046364664 23.130422442     0.190974332  0.190974343  0.043233106


 FORCES acting on ions
    electron-ion (+dipol)            ewald-force                    non-local-force                 convergence-correction
 -----------------------------------------------------------------------------------------------
   -.456E-04 -.374E-04 -.150E+00   0.488E-03 0.290E-03 0.152E+00   -.520E-17 -.104E-16 -.168E-02   -.897E-07 -.739E-07 -.289E-02
   0.456E-04 0.374E-04 0.150E+00   -.488E-03 -.290E-03 -.152E+00   -.234E-21 -.109E-20 0.168E-02   0.897E-07 0.739E-07 0.289E-02
   -.402E-04 0.394E-06 0.238E+03   -.199E-03 -.111E-03 -.235E+03   0.417E-18 0.158E-16 -.299E+01   0.187E-07 0.101E-07 -.371E-01
   0.402E-04 -.394E-06 -.238E+03   0.199E-03 0.111E-03 0.235E+03   0.152E-16 -.158E-16 0.299E+01   -.187E-07 -.101E-07 0.371E-01
   -.155E+02 -.239E-02 -.482E+03   0.118E+02 0.347E-03 0.485E+03   0.363E+01 0.229E-02 -.352E+01   0.410E-02 -.298E-03 0.681E-01
   0.773E+01 0.134E+02 -.482E+03   -.591E+01 -.102E+02 0.485E+03   -.181E+01 -.314E+01 -.352E+01   -.231E-02 -.340E-02 0.681E-01
   0.773E+01 -.134E+02 -.482E+03   -.591E+01 0.102E+02 0.485E+03   -.182E+01 0.314E+01 -.352E+01   -.179E-02 0.370E-02 0.681E-01
   0.155E+02 0.239E-02 0.482E+03   -.118E+02 -.347E-03 -.485E+03   -.363E+01 -.229E-02 0.352E+01   -.410E-02 0.298E-03 -.681E-01
   -.773E+01 -.134E+02 0.482E+03   0.591E+01 0.102E+02 -.485E+03   0.181E+01 0.314E+01 0.352E+01   0.231E-02 0.340E-02 -.681E-01
   -.773E+01 0.134E+02 0.482E+03   0.591E+01 -.102E+02 -.485E+03   0.182E+01 -.314E+01 0.352E+01   0.179E-02 -.370E-02 -.681E-01
 -----------------------------------------------------------------------------------------------
   0.354E-09 0.393E-09 0.185E-09   0.178E-14 -.888E-14 0.114E-12   0.666E-15 0.444E-15 0.888E-15   0.112E-12 -.491E-13 0.621E-11


 POSITION                                       TOTAL-FORCE (eV/Angst)
 -----------------------------------------------------------------------------------
      3.02318      1.74543     11.56558         0.000000      0.000000     -0.002122
      6.04637      3.49087     11.56484         0.000000     -0.000000      0.002122
     -0.00000     -0.00000     10.36743         0.000000      0.000000     -0.000278
     -0.00000     -0.00000     12.76300         0.000000      0.000000      0.000278
      3.77880     -0.00023     13.08730        -0.016303      0.000856     -0.017187
      1.13359      1.96389     13.08730         0.008893      0.013691     -0.017187
      4.15717      3.27265     13.08730         0.007410     -0.014547     -0.017187
      2.26757      0.00023     10.04312         0.016303     -0.000856      0.017187
      1.88959      3.27241     10.04312        -0.008893     -0.013691      0.017187
      4.91238      1.96366     10.04312        -0.007410      0.014547      0.017187
 -----------------------------------------------------------------------------------
    total drift:                                0.000000      0.000000      0.000000


--------------------------------------------------------------------------------------------------------



  FREE ENERGIE OF THE ION-ELECTRON SYSTEM (eV)
  ---------------------------------------------------
  free  energy   TOTEN  =       -50.88255971 eV

  energy  without entropy=      -50.88255971  energy(sigma->0) =      -50.88255971

 d Force = 0.5532996E-04[ 0.506E-04, 0.600E-04]  d Energy = 0.1247099E-03-0.694E-04
 d Force = 0.2507814E+00[ 0.251E+00, 0.250E+00]  d Ewald  =-0.4099695E+02 0.412E+02


--------------------------------------------------------------------------------------------------------


    POTLOK:  cpu time   50.3920: real time   52.6926


--------------------------------------------------------------------------------------------------------




--------------------------------------------------------------------------------------------------------


  
 reached required accuracy - stopping structural energy minimisation
     LOOP+:  cpu time  539.1800: real time  548.0908
    4ORBIT:  cpu time    0.0000: real time    0.0000



 total charge     

# of ion       s       p       d       tot
------------------------------------------
    1        0.274   0.330   4.949   5.554
    2        0.274   0.330   4.949   5.554
    3        1.138   1.164   0.125   2.427
    4        1.138   1.164   0.125   2.427
    5        1.375   2.311   0.000   3.686
    6        1.369   2.326   0.000   3.695
    7        1.372   2.312   0.000   3.685
    8        1.375   2.311   0.000   3.686
    9        1.369   2.326   0.000   3.695
   10        1.372   2.312   0.000   3.685
--------------------------------------------------
tot         11.056  16.889  10.147  38.093



 magnetization (x)

# of ion       s       p       d       tot
------------------------------------------
    1        0.026   0.029   3.098   3.154
    2        0.026   0.029   3.098   3.154
    3       -0.002   0.019   0.002   0.019
    4       -0.002   0.019   0.002   0.019
    5        0.006  -0.053   0.000  -0.047
    6        0.006  -0.031   0.000  -0.025
    7        0.004  -0.047   0.000  -0.043
    8        0.006  -0.053   0.000  -0.047
    9        0.006  -0.031   0.000  -0.025
   10        0.004  -0.047   0.000  -0.043
--------------------------------------------------
tot          0.082  -0.166   6.200   6.116

 BZINTS: Fermi energy: -2.683151; 58.000000 electrons
         Band energy:-488.000365;  BLOECHL correction: -0.022512

 total amount of memory used by VASP MPI-rank0   129380. kBytes
=======================================================================

   base      :      30000. kBytes
   nonlr-proj:       9085. kBytes
   fftplans  :      11247. kBytes
   grid      :      66142. kBytes
   one-center:        311. kBytes
   wavefun   :      12595. kBytes

  
  
 General timing and accounting informations for this job:
 ========================================================
  
                  Total CPU time used (sec):    16148.840
                            User time (sec):    15632.020
                          System time (sec):      516.820
                         Elapsed time (sec):    16335.040
  
                   Maximum memory used (kb):      383024.
                   Average memory used (kb):           0.
  
                          Minor page faults:     15372953
                          Major page faults:            8
                 Voluntary context switches:         1026
