       N       E                     dE             d eps       ncg     rms          rms(c)
DAV:   1     0.376846813928E+03    0.37685E+03   -0.16055E+04   960   0.813E+02
DAV:   2     0.678416918837E+01   -0.37006E+03   -0.34869E+03  1184   0.159E+02
DAV:   3    -0.401551265486E+02   -0.46939E+02   -0.46052E+02  1296   0.652E+01
DAV:   4    -0.424388696130E+02   -0.22837E+01   -0.22743E+01  1360   0.187E+01
DAV:   5    -0.424949990752E+02   -0.56129E-01   -0.56122E-01  1440   0.296E+00    0.145E+01
DAV:   6    -0.451497444708E+02   -0.26547E+01   -0.25884E+01  1456   0.451E+01    0.221E+01
DAV:   7    -0.405867033246E+02    0.45630E+01   -0.57531E+01  1328   0.690E+01    0.865E+00
DAV:   8    -0.404654503127E+02    0.12125E+00   -0.30117E+00  1392   0.902E+00    0.546E+00
DAV:   9    -0.408561910802E+02   -0.39074E+00   -0.17116E+00  1472   0.102E+01    0.329E+00
DAV:  10    -0.412559325752E+02   -0.39974E+00   -0.23548E-01  1312   0.230E+00    0.288E+00
DAV:  11    -0.413838605553E+02   -0.12793E+00   -0.63370E-02  1440   0.222E+00    0.189E+00
DAV:  12    -0.416614033157E+02   -0.27754E+00   -0.18673E-01  1136   0.302E+00    0.805E-01
DAV:  13    -0.417538247951E+02   -0.92421E-01   -0.43880E-02  1168   0.129E+00    0.471E-01
DAV:  14    -0.417659230967E+02   -0.12098E-01   -0.10121E-02  1072   0.545E-01    0.148E-01
DAV:  15    -0.417667176138E+02   -0.79452E-03   -0.15750E-03   992   0.197E-01    0.564E-02
DAV:  16    -0.417669955199E+02   -0.27791E-03   -0.44383E-04   960   0.103E-01    0.322E-02
DAV:  17    -0.417671548754E+02   -0.15936E-03   -0.26513E-04  1008   0.572E-02    0.144E-02
DAV:  18    -0.417670996589E+02    0.55216E-04   -0.13614E-04   960   0.407E-02
   1 F= -.41767100E+02 E0= -.41767100E+02  d E =-.417671E+02  mag=     6.0021
       N       E                     dE             d eps       ncg     rms          rms(c)
DAV:   1    -0.417762618371E+02   -0.91070E-02   -0.22279E-01  1104   0.268E+00    0.530E-01
DAV:   2    -0.417759371083E+02    0.32473E-03   -0.36797E-02  1120   0.208E+00    0.570E-01
DAV:   3    -0.417707881945E+02    0.51489E-02   -0.15922E-02  1328   0.150E+00    0.198E-01
DAV:   4    -0.417694662382E+02    0.13220E-02   -0.44190E-03  1216   0.448E-01    0.385E-02
DAV:   5    -0.417692876887E+02    0.17855E-03   -0.15513E-04   832   0.892E-02    0.199E-02
DAV:   6    -0.417691109499E+02    0.17674E-03   -0.47934E-05   736   0.327E-02    0.131E-02
DAV:   7    -0.417688759567E+02    0.23499E-03   -0.29776E-05   704   0.306E-02    0.936E-03
DAV:   8    -0.417686419141E+02    0.23404E-03   -0.41928E-05   752   0.434E-02    0.100E-02
DAV:   9    -0.417686832772E+02   -0.41363E-04   -0.52282E-05   832   0.326E-02
   2 F= -.41768683E+02 E0= -.41768683E+02  d E =-.158362E-02  mag=     5.9989
       N       E                     dE             d eps       ncg     rms          rms(c)
DAV:   1    -0.417701567525E+02   -0.15148E-02   -0.25266E-02  1040   0.884E-01    0.175E-01
DAV:   2    -0.417700235519E+02    0.13320E-03   -0.38095E-03  1152   0.658E-01    0.183E-01
DAV:   3    -0.417695243322E+02    0.49922E-03   -0.17467E-03  1168   0.493E-01    0.675E-02
DAV:   4    -0.417692264221E+02    0.29791E-03   -0.55278E-04   976   0.165E-01    0.156E-02
DAV:   5    -0.417692280854E+02   -0.16633E-05   -0.36696E-05   768   0.469E-02
   3 F= -.41769228E+02 E0= -.41769228E+02  d E =-.212843E-02  mag=     5.9994
