 vasp.5.4.4.18Apr17-6-g9f103f2a35 (build May  1 2020 15:48:39) complex           
 executed on             LinuxGNU date 2020.06.11  17:06:28
 running on   16 total cores
 distrk:  each k-point on   16 cores,    1 groups
 distr:  one band on NCORES_PER_BAND=   1 cores,   16 groups


--------------------------------------------------------------------------------------------------------


 INCAR:
 POTCAR:   PAW_PBE Cr 06Sep2000                   
 POTCAR:   PAW_PBE Ge 05Jan2001                   
 POTCAR:   PAW_PBE Te 08Apr2002                   

 ----------------------------------------------------------------------------- 
|                                                                             |
|           W    W    AA    RRRRR   N    N  II  N    N   GGGG   !!!           |
|           W    W   A  A   R    R  NN   N  II  NN   N  G    G  !!!           |
|           W    W  A    A  R    R  N N  N  II  N N  N  G       !!!           |
|           W WW W  AAAAAA  RRRRR   N  N N  II  N  N N  G  GGG   !            |
|           WW  WW  A    A  R   R   N   NN  II  N   NN  G    G                |
|           W    W  A    A  R    R  N    N  II  N    N   GGGG   !!!           |
|                                                                             |
|      For optimal performance we recommend to set                            |
|        NCORE= 4 - approx SQRT( number of cores)                             |
|      NCORE specifies how many cores store one orbital (NPAR=cpu/NCORE).     |
|      This setting can  greatly improve the performance of VASP for DFT.     |
|      The default,   NCORE=1            might be grossly inefficient         |
|      on modern multi-core architectures or massively parallel machines.     |
|      Do your own testing !!!!                                               |
|      Unfortunately you need to use the default for GW and RPA calculations. |
|      (for HF NCORE is supported but not extensively tested yet)             |
|                                                                             |
 ----------------------------------------------------------------------------- 


 ----------------------------------------------------------------------------- 
|                                                                             |
|  ADVICE TO THIS USER RUNNING 'VASP/VAMP'   (HEAR YOUR MASTER'S VOICE ...):  |
|                                                                             |
|      You have switched on vdW-DFT.                                          |
|      This routine was written and supplied by Jiri Klimes.                  |
|      We recommed that you carefully read and cite the following             |
|      publication                                                            |
|      J. Klimes, D.R. Bowler, A. Michelides                                  |
|        J. Phys.: Cond Matt. 22 022201 (2010)                                |
|      J. Klimes, D.R. Bowler, A. Michelides                                  |
|        Phys. Rev. B. 83, 195131 (2011)                                      |
|      and references therein.                                                |
|                                                                             |
 ----------------------------------------------------------------------------- 

 POTCAR:   PAW_PBE Cr 06Sep2000                   
   VRHFIN =Cr : d5 s1                                                           
   LEXCH  = PE                                                                  
   EATOM  =   276.9744 eV,   20.3570 Ry                                         
                                                                                
   TITEL  = PAW_PBE Cr 06Sep2000                                                
   LULTRA =        F    use ultrasoft PP ?                                      
   IUNSCR =        1    unscreen: 0-lin 1-nonlin 2-no                           
   RPACOR =    2.080    partial core radius                                     
   POMASS =   51.996; ZVAL   =    6.000    mass and valenz                      
   RCORE  =    2.500    outmost cutoff radius                                   
   RWIGS  =    2.500; RWIGS  =    1.323    wigner-seitz radius (au A)           
   ENMAX  =  227.082; ENMIN  =  170.311 eV                                      
   RCLOC  =    1.721    cutoff for local pot                                    
   LCOR   =        T    correct aug charges                                     
   LPAW   =        T    paw PP                                                  
   EAUG   =  402.108                                                            
   DEXC   =    -.035                                                            
   RMAX   =    3.060    core radius for proj-oper                               
   RAUG   =    1.300    factor for augmentation sphere                          
   RDEP   =    2.609    radius for radial grids                                 
   QCUT   =   -4.085; QGAM   =    8.171    optimization parameters              
                                                                                
   Description                                                                  
     l     E      TYP  RCUT    TYP  RCUT                                        
     2   .000     23  2.500                                                     
     2   .000     23  2.500                                                     
     0   .000     23  2.500                                                     
     0   .000     23  2.500                                                     
     1  -.400     23  2.500                                                     
     1  2.000     23  2.500                                                     
     3   .000      7   .000                                                     
  local pseudopotential read in
  partial core-charges read in
  atomic valenz-charges read in
  non local Contribution for L=           2  read in
    real space projection operators read in
  non local Contribution for L=           2  read in
    real space projection operators read in
  non local Contribution for L=           0  read in
    real space projection operators read in
  non local Contribution for L=           0  read in
    real space projection operators read in
  non local Contribution for L=           1  read in
    real space projection operators read in
  non local Contribution for L=           1  read in
    real space projection operators read in
    PAW grid and wavefunctions read in

   number of l-projection  operators is LMAX  =           6
   number of lm-projection operators is LMMAX =          18

 POTCAR:   PAW_PBE Ge 05Jan2001                   
   VRHFIN =Ge: s2p2                                                             
   LEXCH  = PE                                                                  
   EATOM  =   104.9960 eV,    7.7170 Ry                                         
                                                                                
   TITEL  = PAW_PBE Ge 05Jan2001                                                
   LULTRA =        F    use ultrasoft PP ?                                      
   IUNSCR =        1    unscreen: 0-lin 1-nonlin 2-no                           
   RPACOR =    2.170    partial core radius                                     
   POMASS =   72.610; ZVAL   =    4.000    mass and valenz                      
   RCORE  =    2.300    outmost cutoff radius                                   
   RWIGS  =    2.300; RWIGS  =    1.217    wigner-seitz radius (au A)           
   ENMAX  =  173.807; ENMIN  =  130.355 eV                                      
   ICORE  =        3    local potential                                         
   LCOR   =        T    correct aug charges                                     
   LPAW   =        T    paw PP                                                  
   EAUG   =  385.843                                                            
   DEXC   =    -.138                                                            
   RMAX   =    3.497    core radius for proj-oper                               
   RAUG   =    1.300    factor for augmentation sphere                          
   RDEP   =    2.318    radius for radial grids                                 
   QCUT   =   -3.574; QGAM   =    7.148    optimization parameters              
                                                                                
   Description                                                                  
     l     E      TYP  RCUT    TYP  RCUT                                        
     0   .000     23  2.300                                                     
     0   .000     23  2.300                                                     
     1   .000     23  2.300                                                     
     1   .000     23  2.300                                                     
     2   .000     23  2.300                                                     
     3  -.100      7  2.300                                                     
  local pseudopotential read in
  partial core-charges read in
  atomic valenz-charges read in
  non local Contribution for L=           0  read in
    real space projection operators read in
  non local Contribution for L=           0  read in
    real space projection operators read in
  non local Contribution for L=           1  read in
    real space projection operators read in
  non local Contribution for L=           1  read in
    real space projection operators read in
  non local Contribution for L=           2  read in
    real space projection operators read in
    PAW grid and wavefunctions read in

   number of l-projection  operators is LMAX  =           5
   number of lm-projection operators is LMMAX =          13

 POTCAR:   PAW_PBE Te 08Apr2002                   
   VRHFIN =Te: s2p4                                                             
   LEXCH  = PE                                                                  
   EATOM  =   223.2721 eV,   16.4100 Ry                                         
                                                                                
   TITEL  = PAW_PBE Te 08Apr2002                                                
   LULTRA =        F    use ultrasoft PP ?                                      
   IUNSCR =        1    unscreen: 0-lin 1-nonlin 2-no                           
   RPACOR =    2.200    partial core radius                                     
   POMASS =  127.600; ZVAL   =    6.000    mass and valenz                      
   RCORE  =    2.300    outmost cutoff radius                                   
   RWIGS  =    2.900; RWIGS  =    1.535    wigner-seitz radius (au A)           
   ENMAX  =  174.982; ENMIN  =  131.236 eV                                      
   ICORE  =        3    local potential                                         
   LCOR   =        T    correct aug charges                                     
   LPAW   =        T    paw PP                                                  
   EAUG   =  368.792                                                            
   DEXC   =    -.169                                                            
   RMAX   =    3.486    core radius for proj-oper                               
   RAUG   =    1.300    factor for augmentation sphere                          
   RDEP   =    2.397    radius for radial grids                                 
   QCUT   =   -3.586; QGAM   =    7.172    optimization parameters              
                                                                                
   Description                                                                  
     l     E      TYP  RCUT    TYP  RCUT                                        
     0   .000     23  2.300                                                     
     0   .000     23  2.300                                                     
     1   .000     23  2.300                                                     
     1   .000     23  2.300                                                     
     2   .000     23  2.300                                                     
     3  -.100     23  2.300                                                     
  local pseudopotential read in
  partial core-charges read in
  atomic valenz-charges read in
  non local Contribution for L=           0  read in
    real space projection operators read in
  non local Contribution for L=           0  read in
    real space projection operators read in
  non local Contribution for L=           1  read in
    real space projection operators read in
  non local Contribution for L=           1  read in
    real space projection operators read in
  non local Contribution for L=           2  read in
    real space projection operators read in
    PAW grid and wavefunctions read in

   number of l-projection  operators is LMAX  =           5
   number of lm-projection operators is LMMAX =          13

 Optimization of the real space projectors (new method)

 maximal supplied QI-value         = 15.12
 optimisation between [QCUT,QGAM] = [ 11.64, 23.28] = [ 37.95,151.78] Ry 
 Optimized for a Real-space Cutoff    1.49 Angstroem

   l    n(q)    QCUT    max X(q) W(low)/X(q) W(high)/X(q)  e(spline) 
   2      9    11.641     4.777    0.25E-04    0.21E-05    0.63E-07
   2      9    11.641    31.132    0.13E-03    0.22E-03    0.64E-06
   0     10    11.641    20.416    0.11E-04    0.74E-05    0.19E-07
   0     10    11.641    45.408    0.10E-03    0.85E-04    0.30E-06
   1     10    11.641     7.848    0.22E-04    0.23E-04    0.56E-07
   1     10    11.641     9.895    0.85E-04    0.54E-04    0.16E-06
 Optimization of the real space projectors (new method)

 maximal supplied QI-value         = 16.25
 optimisation between [QCUT,QGAM] = [ 11.54, 23.24] = [ 37.28,151.24] Ry 
 Optimized for a Real-space Cutoff    1.28 Angstroem

   l    n(q)    QCUT    max X(q) W(low)/X(q) W(high)/X(q)  e(spline) 
   0      9    11.539     8.651    0.22E-04    0.16E-04    0.10E-07
   0      9    11.539    33.192    0.11E-03    0.16E-03    0.65E-07
   1      8    11.539     5.899    0.37E-04    0.28E-04    0.43E-07
   1      8    11.539    27.289    0.22E-03    0.28E-04    0.14E-06
   2      8    11.539     4.673    0.11E-03    0.18E-03    0.58E-07
 Optimization of the real space projectors (new method)

 maximal supplied QI-value         = 16.25
 optimisation between [QCUT,QGAM] = [ 11.54, 23.24] = [ 37.28,151.24] Ry 
 Optimized for a Real-space Cutoff    1.36 Angstroem

   l    n(q)    QCUT    max X(q) W(low)/X(q) W(high)/X(q)  e(spline) 
   0      9    11.539     7.090    0.13E-04    0.25E-05    0.51E-08
   0      9    11.539   101.654    0.53E-04    0.69E-04    0.12E-06
   1      9    11.539     5.276    0.20E-04    0.98E-05    0.24E-07
   1      9    11.539    81.891    0.24E-03    0.13E-04    0.15E-06
   2      9    11.539     5.599    0.30E-04    0.97E-04    0.54E-07

 ----------------------------------------------------------------------------- 
|                                                                             |
|  ADVICE TO THIS USER RUNNING 'VASP/VAMP'   (HEAR YOUR MASTER'S VOICE ...):  |
|                                                                             |
|      You enforced a specific xc-type in the INCAR file,                     |
|      a different type was found on the POTCAR file                          |
|          I HOPE YOU KNOW, WHAT YOU ARE  DOING                               |
|                                                                             |
 ----------------------------------------------------------------------------- 

 PAW_PBE Cr 06Sep2000                   :
 energy of atom  1       EATOM= -276.9744
 kinetic energy error for atom=    0.0010 (will be added to EATOM!!)
 PAW_PBE Ge 05Jan2001                   :
 energy of atom  2       EATOM= -104.9960
 kinetic energy error for atom=    0.0002 (will be added to EATOM!!)
 PAW_PBE Te 08Apr2002                   :
 energy of atom  3       EATOM= -223.2721
 kinetic energy error for atom=    0.0007 (will be added to EATOM!!)


 POSCAR: Cr2 Ge2 Te6                             
  positions in direct lattice
  velocities in cartesian coordinates
  No initial velocities read in
 exchange correlation table for  LEXCH =       42
   RHO(1)=    0.500       N(1)  =     2000
   RHO(2)=  100.500       N(2)  =     4000



--------------------------------------------------------------------------------------------------------


 ion  position               nearest neighbor table
   1  0.333  0.333  0.500-   6 2.78   5 2.78   7 2.78   8 2.78  10 2.78   9 2.78
   2  0.667  0.667  0.500-   9 2.78   8 2.78  10 2.78   5 2.78   7 2.78   6 2.78
   3  0.000  0.000  0.448-   4 2.43   8 2.63  10 2.63   9 2.63
   4  0.000  0.000  0.552-   3 2.43   5 2.63   7 2.63   6 2.63
   5  0.626  0.000  0.574-   4 2.63   1 2.78   2 2.78
   6  0.000  0.373  0.574-   4 2.63   1 2.78   2 2.78
   7  0.373  0.626  0.574-   4 2.63   1 2.78   2 2.78
   8  0.374  1.000  0.426-   3 2.63   2 2.78   1 2.78
   9  1.000  0.627  0.426-   3 2.63   2 2.78   1 2.78
  10  0.627  0.374  0.426-   3 2.63   2 2.78   1 2.78

  LATTYP: Found a hexagonal cell.
 ALAT       =     6.9077769333
 C/A-ratio  =     3.3939410937
  
  Lattice vectors:
  
 A1 = (   3.4538890000,  -5.9823100000,   0.0000000000)
 A2 = (  -6.9077770000,   0.0000000000,   0.0000000000)
 A3 = (   0.0000000000,   0.0000000000, -23.4445880000)


Analysis of symmetry for initial positions (statically):
=====================================================================
 Subroutine PRICEL returns:
 Original cell was already a primitive cell.
 

 Routine SETGRP: Setting up the symmetry group for a 
 hexagonal supercell.


 Subroutine GETGRP returns: Found  6 space group operations
 (whereof  6 operations were pure point group operations)
 out of a pool of 24 trial point group operations.


The static configuration has the point symmetry S_6 .


Analysis of symmetry for dynamics (positions and initial velocities):
=====================================================================
 Subroutine PRICEL returns:
 Original cell was already a primitive cell.
 

 Routine SETGRP: Setting up the symmetry group for a 
 hexagonal supercell.


 Subroutine GETGRP returns: Found  6 space group operations
 (whereof  6 operations were pure point group operations)
 out of a pool of 24 trial point group operations.


The dynamic configuration has the point symmetry S_6 .


Analysis of structural, dynamic, and magnetic symmetry:
=====================================================================
 Subroutine PRICEL returns:
 Original cell was already a primitive cell.
 

 Routine SETGRP: Setting up the symmetry group for a 
 hexagonal supercell.


 Subroutine GETGRP returns: Found  6 space group operations
 (whereof  6 operations were pure point group operations)
 out of a pool of 24 trial point group operations.


The magnetic configuration has the point symmetry S_6 .


 Subroutine INISYM returns: Found  6 space group operations
 (whereof  6 operations are pure point group operations),
 and found     1 'primitive' translations



 KPOINTS: Kpoints from vasprun.xml                

Automatic generation of k-mesh.
Space group operators:
 irot       det(A)        alpha          n_x          n_y          n_z        tau_x        tau_y        tau_z
    1     1.000000     0.000000     1.000000     0.000000     0.000000     0.000000     0.000000     0.000000
    2    -1.000000     0.000000     1.000000     0.000000     0.000000     0.000000     0.000000     0.000000
    3     1.000000   120.000000     0.000000     0.000000     1.000000     0.000000     0.000000     0.000000
    4    -1.000000   120.000000     0.000000     0.000000     1.000000     0.000000     0.000000     0.000000
    5     1.000000   120.000000     0.000000     0.000000    -1.000000     0.000000     0.000000     0.000000
    6    -1.000000   120.000000     0.000000     0.000000    -1.000000     0.000000     0.000000     0.000000
 
 Subroutine IBZKPT returns following result:
 ===========================================
 
 Found      5 irreducible k-points:
 
 Following reciprocal coordinates:
            Coordinates               Weight
  0.000000  0.000000  0.000000      1.000000
  0.200000  0.000000  0.000000      6.000000
  0.400000  0.000000  0.000000      6.000000
  0.400000  0.200000  0.000000      6.000000
 -0.400000  0.200000  0.000000      6.000000
 
 Following cartesian coordinates:
            Coordinates               Weight
  0.000000  0.000000  0.000000      1.000000
  0.028953 -0.016716  0.000000      6.000000
  0.057906 -0.033432  0.000000      6.000000
  0.057906  0.000000  0.000000      6.000000
 -0.057906  0.066864  0.000000      6.000000
 
 TETIRR: Found     15 inequivalent tetrahedra from      150


--------------------------------------------------------------------------------------------------------




 Dimension of arrays:
   k-points           NKPTS =      5   k-points in BZ     NKDIM =      5   number of bands    NBANDS=     48
   number of dos      NEDOS =    301   number of ions     NIONS =     10
   non local maximal  LDIM  =      6   non local SUM 2l+1 LMDIM =     18
   total plane-waves  NPLWV = 524880
   max r-space proj   IRMAX =   7543   max aug-charges    IRDMAX=  31706
   dimension x,y,z NGX =    54 NGY =   54 NGZ =  180
   dimension x,y,z NGXF=   108 NGYF=  108 NGZF=  360
   support grid    NGXF=   108 NGYF=  108 NGZF=  360
   ions per type =               2   2   6
   NGX,Y,Z   is equivalent  to a cutoff of  13.00, 13.00, 12.76 a.u.
   NGXF,Y,Z  is equivalent  to a cutoff of  25.99, 25.99, 25.53 a.u.

 SYSTEM =  unknown system                          
 POSCAR =  Cr2 Ge2 Te6                             

 Startparameter for this run:
   NWRITE =      2    write-flag & timer
   PREC   = accura    normal or accurate (medium, high low for compatibility)
   ISTART =      0    job   : 0-new  1-cont  2-samecut
   ICHARG =      2    charge: 1-file 2-atom 10-const
   ISPIN  =      2    spin polarized calculation?
   LNONCOLLINEAR =      F non collinear calculations
   LSORBIT =      F    spin-orbit coupling
   INIWAV =      1    electr: 0-lowe 1-rand  2-diag
   LASPH  =      F    aspherical Exc in radial PAW
   METAGGA=      F    non-selfconsistent MetaGGA calc.

 Electronic Relaxation 1
   ENCUT  =  520.0 eV  38.22 Ry    6.18 a.u.  12.84 12.84 43.59*2*pi/ulx,y,z
   ENINI  =  520.0     initial cutoff
   ENAUG  =  402.1 eV  augmentation charge cutoff
   NELM   =    400;   NELMIN=  2; NELMDL=  0     # of ELM steps 
   EDIFF  = 0.1E-03   stopping-criterion for ELM
   LREAL  =      T    real-space projection
   NLSPLINE    = F    spline interpolate recip. space projectors
   LCOMPAT=      F    compatible to vasp.4.4
   GGA_COMPAT  = T    GGA compatible to vasp.4.4-vasp.4.6
   LMAXPAW     = -100 max onsite density
   LMAXMIX     =    2 max onsite mixed and CHGCAR
   VOSKOWN=      0    Vosko Wilk Nusair interpolation
   ROPT   =   -0.00025  -0.00025  -0.00025
 Ionic relaxation
   EDIFFG = 0.1E-02   stopping-criterion for IOM
   NSW    =     99    number of steps for IOM
   NBLOCK =      1;   KBLOCK =     99    inner block; outer block 
   IBRION =      2    ionic relax: 0-MD 1-quasi-New 2-CG
   NFREE  =      1    steps in history (QN), initial steepest desc. (CG)
   ISIF   =      3    stress and relaxation
   IWAVPR =     11    prediction:  0-non 1-charg 2-wave 3-comb
   ISYM   =      2    0-nonsym 1-usesym 2-fastsym
   LCORR  =      T    Harris-Foulkes like correction to forces

   POTIM  = 0.5000    time-step for ionic-motion
   TEIN   =    0.0    initial temperature
   TEBEG  =    0.0;   TEEND  =   0.0 temperature during run
   SMASS  =  -3.00    Nose mass-parameter (am)
   estimated Nose-frequenzy (Omega)   =  0.10E-29 period in steps =****** mass=  -0.109E-26a.u.
   SCALEE = 1.0000    scale energy and forces
   NPACO  =    256;   APACO  = 16.0  distance and # of slots for P.C.
   PSTRESS=    0.0 pullay stress

  Mass of Ions in am
   POMASS =  52.00 72.61127.60
  Ionic Valenz
   ZVAL   =   6.00  4.00  6.00
  Atomic Wigner-Seitz radii
   RWIGS  =  -1.00 -1.00 -1.00
  virtual crystal weights 
   VCA    =   1.00  1.00  1.00
   NELECT =      56.0000    total number of electrons
   NUPDOWN=      -1.0000    fix difference up-down

 DOS related values:
   EMIN   =  10.00;   EMAX   =-10.00  energy-range for DOS
   EFERMI =   0.00
   ISMEAR =    -5;   SIGMA  =   0.05  broadening in eV -4-tet -1-fermi 0-gaus

 Electronic relaxation 2 (details)
   IALGO  =     38    algorithm
   LDIAG  =      T    sub-space diagonalisation (order eigenvalues)
   LSUBROT=      F    optimize rotation matrix (better conditioning)
   TURBO    =      0    0=normal 1=particle mesh
   IRESTART =      0    0=no restart 2=restart with 2 vectors
   NREBOOT  =      0    no. of reboots
   NMIN     =      0    reboot dimension
   EREF     =   0.00    reference energy to select bands
   IMIX   =      4    mixing-type and parameters
     AMIX     =   0.40;   BMIX     =  1.00
     AMIX_MAG =   1.60;   BMIX_MAG =  1.00
     AMIN     =   0.01
     WC   =   100.;   INIMIX=   1;  MIXPRE=   1;  MAXMIX= -45

 Intra band minimization:
   WEIMIN = 0.0010     energy-eigenvalue tresh-hold
   EBREAK =  0.52E-06  absolut break condition
   DEPER  =   0.30     relativ break condition  

   TIME   =   0.40     timestep for ELM

  volume/ion in A,a.u.               =      96.88       653.80
  Fermi-wavevector in a.u.,A,eV,Ry     =   0.632976  1.196152  5.451299  0.400659
  Thomas-Fermi vector in A             =   1.696476

 Write flags
   LWAVE        =      F    write WAVECAR
   LDOWNSAMPLE  =      F    k-point downsampling of WAVECAR
   LCHARG       =      T    write CHGCAR
   LVTOT        =      F    write LOCPOT, total local potential
   LVHAR        =      F    write LOCPOT, Hartree potential only
   LELF         =      F    write electronic localiz. function (ELF)
   LORBIT       =     11    0 simple, 1 ext, 2 COOP (PROOUT), +10 PAW based schemes


 Dipole corrections
   LMONO  =      F    monopole corrections only (constant potential shift)
   LDIPOL =      F    correct potential (dipole corrections)
   IDIPOL =      0    1-x, 2-y, 3-z, 4-all directions 
   EPSILON=  1.0000000 bulk dielectric constant

 Exchange correlation treatment:
   GGA     =    BO    GGA type
   LEXCH   =    42    internal setting for exchange type
   VOSKOWN=      0    Vosko Wilk Nusair interpolation
   LHFCALC =     F    Hartree Fock is set to
   LHFONE  =     F    Hartree Fock one center treatment
   AEXX    =    0.0000 exact exchange contribution

 vdW DFT:
   LUSE_VDW   =     T    switch on vdW DFT
   Zab_VDW    =-.8491    correlation parameter
   PARAM1     =0.1833
   PARAM2     =0.2200
   PARAM3     =0.0000
   -- rVV10 --
   BPARAM     = 6.3000
   CPARAM     = 0.0093

 Linear response parameters
   LEPSILON=     F    determine dielectric tensor
   LRPA    =     F    only Hartree local field effects (RPA)
   LNABLA  =     F    use nabla operator in PAW spheres
   LVEL    =     F    velocity operator in full k-point grid
   LINTERFAST=   F  fast interpolation
   KINTER  =     0    interpolate to denser k-point grid
   CSHIFT  =0.1000    complex shift for real part using Kramers Kronig
   OMEGAMAX=  -1.0    maximum frequency
   DEG_THRESHOLD= 0.2000000E-02 threshold for treating states as degnerate
   RTIME   =   -0.100 relaxation time in fs
  (WPLASMAI=    0.000 imaginary part of plasma frequency in eV, 0.658/RTIME)
   DFIELD  = 0.0000000 0.0000000 0.0000000 field for delta impulse in time

 Orbital magnetization related:
   ORBITALMAG=     F  switch on orbital magnetization
   LCHIMAG   =     F  perturbation theory with respect to B field
   DQ        =  0.001000  dq finite difference perturbation B field
   LLRAUG    =     F  two centre corrections for induced B field



--------------------------------------------------------------------------------------------------------


 conjugate gradient relaxation of ions
 charge density and potential will be updated during run
 spin polarized calculation
 Variant of blocked Davidson
 Davidson routine will perform the subspace rotation
 perform sub-space diagonalisation
    after iterative eigenvector-optimisation
 modified Broyden-mixing scheme, WC =      100.0
 initial mixing is a Kerker type mixing with AMIX =  0.4000 and BMIX =      1.0000
 Hartree-type preconditioning will be used
 using additional bands           20
 real space projection scheme for non local part
 use partial core corrections
 calculate Harris-corrections to forces   (improved forces if not selfconsistent)
 use gradient corrections 
 use of overlap-Matrix (Vanderbilt PP)
 Fermi weights with tetrahedron method with Bloechl corrections


--------------------------------------------------------------------------------------------------------


  energy-cutoff  :      520.00
  volume of cell :      968.84
      direct lattice vectors                 reciprocal lattice vectors
     6.907777000 -0.000000000  0.000000000     0.144764372 -0.083579742  0.000000000
     3.453888000  5.982310000  0.000000000     0.000000000  0.167159509 -0.000000000
     0.000000000  0.000000000 23.444588000    -0.000000000  0.000000000  0.042653767

  length of vectors
     6.907777000  6.907776433 23.444588000     0.167159495  0.167159509  0.042653767



 k-points in units of 2pi/SCALE and weight: Kpoints from vasprun.xml                
   0.00000000  0.00000000  0.00000000       0.040
   0.02895287 -0.01671595  0.00000000       0.240
   0.05790575 -0.03343190  0.00000000       0.240
   0.05790575  0.00000000  0.00000000       0.240
  -0.05790575  0.06686380  0.00000000       0.240

 k-points in reciprocal lattice and weights: Kpoints from vasprun.xml                
   0.00000000  0.00000000  0.00000000       0.040
   0.20000000  0.00000000  0.00000000       0.240
   0.40000000  0.00000000  0.00000000       0.240
   0.40000000  0.20000000  0.00000000       0.240
  -0.40000000  0.20000000  0.00000000       0.240

 position of ions in fractional coordinates (direct lattice) 
   0.33333300  0.33333300  0.49992500
   0.66666700  0.66666700  0.50007500
   0.00000000  0.00000000  0.44821600
   0.00000000  0.00000000  0.55178400
   0.62635700  0.00042000  0.57375200
   0.00042000  0.37322400  0.57375200
   0.37322400  0.62635700  0.57375200
   0.37364300  0.99958000  0.42624800
   0.99958000  0.62677600  0.42624800
   0.62677600  0.37364300  0.42624800

 position of ions in cartesian coordinates  (Angst):
   3.45388488  1.99410134 11.72053566
   6.90778012  3.98820866 11.72405234
   0.00000000  0.00000000 10.50823946
   0.00000000  0.00000000 12.93634854
   4.32818511  0.00251257 13.45137925
   1.29197516  2.23274167 13.45137925
   4.74151509  3.74706174 13.45137925
   6.03347989  5.97979743  9.99320875
   9.06968984  3.74956833  9.99320875
   5.62014991  2.23524826  9.99320875



--------------------------------------------------------------------------------------------------------


 k-point  1 :   0.0000 0.0000 0.0000  plane waves:   26073
 k-point  2 :   0.2000 0.0000 0.0000  plane waves:   26070
 k-point  3 :   0.4000 0.0000 0.0000  plane waves:   26086
 k-point  4 :   0.4000 0.2000 0.0000  plane waves:   26085
 k-point  5 :  -0.4000 0.2000 0.0000  plane waves:   26115

 maximum and minimum number of plane-waves per node :     26115    26070

 maximum number of plane-waves:     26115
 maximum index in each direction: 
   IXMAX=   13   IYMAX=   12   IZMAX=   43
   IXMIN=  -13   IYMIN=  -13   IZMIN=  -43


 serial   3D FFT for wavefunctions
 parallel 3D FFT for charge:
    minimum data exchange during FFTs selected (reduces bandwidth)


 total amount of memory used by VASP MPI-rank0   128789. kBytes
=======================================================================

   base      :      30000. kBytes
   nonlr-proj:       8479. kBytes
   fftplans  :      11247. kBytes
   grid      :      66142. kBytes
   one-center:        311. kBytes
   wavefun   :      12610. kBytes

     INWAV:  cpu time    0.0000: real time    0.0004
 Broyden mixing: mesh for mixing (old mesh)
   NGX = 25   NGY = 25   NGZ = 87
  (NGX  =108   NGY  =108   NGZ  =360)
  gives a total of  54375 points

 initial charge density was supplied:
 charge density of overlapping atoms calculated
 number of electron      56.0000000 magnetization      14.8000000
 keeping initial charge density in first step


--------------------------------------------------------------------------------------------------------


 Maximum index for non-local projection operator         7247
 Maximum index for augmentation-charges         2278 (set IRDMAX)


--------------------------------------------------------------------------------------------------------


 First call to EWALD:  gamma=   0.179
 Maximum number of real-space cells 4x 4x 1
 Maximum number of reciprocal cells 2x 2x 6

    FEWALD:  cpu time    0.0040: real time    0.0015


--------------------------------------- Iteration      1(   1)  ---------------------------------------


vdW kernel read from vdw_kernel.bindat
  0.0000  0.2424  0.5071  0.7962  1.1119  1.4567  1.8333  2.2446  2.6937  3.1842
  3.7199  4.3049  4.9438  5.6415  6.4036  7.2358  8.1446  9.1372 10.2212 11.4050
 12.6979 14.1099 15.6519 17.3360 19.1751 21.1837 23.3773 25.7729 28.3892 31.2465
 34.3669 37.7748 41.4965 45.5611 50.0000

    POTLOK:  cpu time   52.9960: real time   53.0373
    SETDIJ:  cpu time    0.0520: real time    0.0532
     EDDAV:  cpu time   22.8400: real time   22.8659
 BZINTS: Fermi energy:  6.197330; 56.029400 electrons
         Band energy:  25.037641;  BLOECHL correction: -0.071194
       DOS:  cpu time    0.0040: real time    0.0066
    --------------------------------------------
      LOOP:  cpu time   75.8920: real time   75.9630

 eigenvalue-minimisations  :   960
 total energy-change (2. order) : 0.3768468E+03  (-0.1605467E+04)
 number of electron      56.0000000 magnetization      14.8000000
 augmentation part       56.0000000 magnetization      14.8000000

 Free energy of the ion-electron system (eV)
  ---------------------------------------------------
  alpha Z        PSCENC =        14.98434709
  Ewald energy   TEWEN  =      5985.89955237
  -Hartree energ DENC   =     -7849.09420520
  -exchange      EXHF   =         0.00000000
  -V(xc)+E(xc)   XCENC  =      -226.14784124
  PAW double counting   =      1160.02880991     -848.52784502
  entropy T*S    EENTRO =         0.00000000
  eigenvalues    EBANDS =        25.03764059
  atomic energy  EATOM  =      2114.66635543
  Solvation  Ediel_sol  =         0.00000000
  ---------------------------------------------------
  free energy    TOTEN  =       376.84681393 eV

  energy without entropy =      376.84681393  energy(sigma->0) =      376.84681393


--------------------------------------------------------------------------------------------------------




--------------------------------------- Iteration      1(   2)  ---------------------------------------


     EDDAV:  cpu time   27.1520: real time   27.6857
 BZINTS: Fermi energy: -0.568274; 55.989171 electrons
         Band energy:-345.025004;  BLOECHL correction: -0.010826
       DOS:  cpu time    0.0080: real time    0.0087
    --------------------------------------------
      LOOP:  cpu time   27.1600: real time   27.6944

 eigenvalue-minimisations  :  1184
 total energy-change (2. order) :-0.3700626E+03  (-0.3486876E+03)
 number of electron      56.0000000 magnetization      14.8000000
 augmentation part       56.0000000 magnetization      14.8000000

 Free energy of the ion-electron system (eV)
  ---------------------------------------------------
  alpha Z        PSCENC =        14.98434709
  Ewald energy   TEWEN  =      5985.89955237
  -Hartree energ DENC   =     -7849.09420520
  -exchange      EXHF   =         0.00000000
  -V(xc)+E(xc)   XCENC  =      -226.14784124
  PAW double counting   =      1160.02880991     -848.52784502
  entropy T*S    EENTRO =         0.00000000
  eigenvalues    EBANDS =      -345.02500415
  atomic energy  EATOM  =      2114.66635543
  Solvation  Ediel_sol  =         0.00000000
  ---------------------------------------------------
  free energy    TOTEN  =         6.78416919 eV

  energy without entropy =        6.78416919  energy(sigma->0) =        6.78416919


--------------------------------------------------------------------------------------------------------




--------------------------------------- Iteration      1(   3)  ---------------------------------------


     EDDAV:  cpu time   29.8480: real time   30.1623
 BZINTS: Fermi energy: -2.190420; 56.000000 electrons
         Band energy:-391.964300;  BLOECHL correction:  0.000000
       DOS:  cpu time    0.0000: real time    0.0029
    --------------------------------------------
      LOOP:  cpu time   29.8480: real time   30.1652

 eigenvalue-minimisations  :  1296
 total energy-change (2. order) :-0.4693930E+02  (-0.4605232E+02)
 number of electron      56.0000000 magnetization      14.8000000
 augmentation part       56.0000000 magnetization      14.8000000

 Free energy of the ion-electron system (eV)
  ---------------------------------------------------
  alpha Z        PSCENC =        14.98434709
  Ewald energy   TEWEN  =      5985.89955237
  -Hartree energ DENC   =     -7849.09420520
  -exchange      EXHF   =         0.00000000
  -V(xc)+E(xc)   XCENC  =      -226.14784124
  PAW double counting   =      1160.02880991     -848.52784502
  entropy T*S    EENTRO =         0.00000000
  eigenvalues    EBANDS =      -391.96429989
  atomic energy  EATOM  =      2114.66635543
  Solvation  Ediel_sol  =         0.00000000
  ---------------------------------------------------
  free energy    TOTEN  =       -40.15512655 eV

  energy without entropy =      -40.15512655  energy(sigma->0) =      -40.15512655


--------------------------------------------------------------------------------------------------------




--------------------------------------- Iteration      1(   4)  ---------------------------------------


     EDDAV:  cpu time   30.3160: real time   31.1316
 BZINTS: Fermi energy: -2.189944; 56.000000 electrons
         Band energy:-394.248043;  BLOECHL correction:  0.000000
       DOS:  cpu time    0.0040: real time    0.0036
    --------------------------------------------
      LOOP:  cpu time   30.3200: real time   31.1353

 eigenvalue-minimisations  :  1360
 total energy-change (2. order) :-0.2283743E+01  (-0.2274330E+01)
 number of electron      56.0000000 magnetization      14.8000000
 augmentation part       56.0000000 magnetization      14.8000000

 Free energy of the ion-electron system (eV)
  ---------------------------------------------------
  alpha Z        PSCENC =        14.98434709
  Ewald energy   TEWEN  =      5985.89955237
  -Hartree energ DENC   =     -7849.09420520
  -exchange      EXHF   =         0.00000000
  -V(xc)+E(xc)   XCENC  =      -226.14784124
  PAW double counting   =      1160.02880991     -848.52784502
  entropy T*S    EENTRO =         0.00000000
  eigenvalues    EBANDS =      -394.24804295
  atomic energy  EATOM  =      2114.66635543
  Solvation  Ediel_sol  =         0.00000000
  ---------------------------------------------------
  free energy    TOTEN  =       -42.43886961 eV

  energy without entropy =      -42.43886961  energy(sigma->0) =      -42.43886961


--------------------------------------------------------------------------------------------------------




--------------------------------------- Iteration      1(   5)  ---------------------------------------


     EDDAV:  cpu time   32.5720: real time   32.7863
 BZINTS: Fermi energy: -2.188281; 56.000000 electrons
         Band energy:-394.304172;  BLOECHL correction:  0.000000
       DOS:  cpu time    0.0000: real time    0.0027
    CHARGE:  cpu time    1.9040: real time    1.9074
    MIXING:  cpu time    0.0400: real time    0.0415
    --------------------------------------------
      LOOP:  cpu time   34.5160: real time   34.7379

 eigenvalue-minimisations  :  1440
 total energy-change (2. order) :-0.5612946E-01  (-0.5612170E-01)
 number of electron      56.0000001 magnetization      13.8564751
 augmentation part       -4.7387458 magnetization      11.4572228

 Broyden mixing:
  rms(total) = 0.14532E+01    rms(broyden)= 0.14532E+01
  rms(prec ) = 0.15357E+01
  weight for this iteration     100.00

 Free energy of the ion-electron system (eV)
  ---------------------------------------------------
  alpha Z        PSCENC =        14.98434709
  Ewald energy   TEWEN  =      5985.89955237
  -Hartree energ DENC   =     -7849.09420520
  -exchange      EXHF   =         0.00000000
  -V(xc)+E(xc)   XCENC  =      -226.14784124
  PAW double counting   =      1160.02880991     -848.52784502
  entropy T*S    EENTRO =         0.00000000
  eigenvalues    EBANDS =      -394.30417242
  atomic energy  EATOM  =      2114.66635543
  Solvation  Ediel_sol  =         0.00000000
  ---------------------------------------------------
  free energy    TOTEN  =       -42.49499908 eV

  energy without entropy =      -42.49499908  energy(sigma->0) =      -42.49499908


--------------------------------------------------------------------------------------------------------




--------------------------------------- Iteration      1(   6)  ---------------------------------------


    POTLOK:  cpu time   51.1920: real time   51.5987
    SETDIJ:  cpu time    0.0520: real time    0.0536
     EDDAV:  cpu time   32.9280: real time   32.9554
 BZINTS: Fermi energy: -3.308776; 56.000000 electrons
         Band energy:-422.118194;  BLOECHL correction: -0.031109
       DOS:  cpu time    0.0040: real time    0.0053
    CHARGE:  cpu time    1.9040: real time    1.9729
    MIXING:  cpu time    0.0400: real time    0.0408
    --------------------------------------------
      LOOP:  cpu time   86.1200: real time   86.6266

 eigenvalue-minimisations  :  1456
 total energy-change (2. order) :-0.2654745E+01  (-0.2588411E+01)
 number of electron      56.0000000 magnetization      13.5488543
 augmentation part        0.4953654 magnetization      10.9345959

 Broyden mixing:
  rms(total) = 0.22074E+01    rms(broyden)= 0.22074E+01
  rms(prec ) = 0.24967E+01
  weight for this iteration     100.00

 eigenvalues of (default mixing * dielectric matrix)
  average eigenvalue GAMMA=   0.4586
  0.4586

 Free energy of the ion-electron system (eV)
  ---------------------------------------------------
  alpha Z        PSCENC =        14.98434709
  Ewald energy   TEWEN  =      5985.89955237
  -Hartree energ DENC   =     -7826.41508641
  -exchange      EXHF   =         0.00000000
  -V(xc)+E(xc)   XCENC  =      -227.64936883
  PAW double counting   =      1155.90916643     -840.42651692
  entropy T*S    EENTRO =         0.00000000
  eigenvalues    EBANDS =      -422.11819362
  atomic energy  EATOM  =      2114.66635543
  Solvation  Ediel_sol  =         0.00000000
  ---------------------------------------------------
  free energy    TOTEN  =       -45.14974447 eV

  energy without entropy =      -45.14974447  energy(sigma->0) =      -45.14974447


--------------------------------------------------------------------------------------------------------




--------------------------------------- Iteration      1(   7)  ---------------------------------------


    POTLOK:  cpu time   51.6240: real time   51.9251
    SETDIJ:  cpu time    0.0520: real time    0.0543
     EDDAV:  cpu time   30.1320: real time   30.3892
 BZINTS: Fermi energy: -2.353970; 56.000000 electrons
         Band energy:-387.905465;  BLOECHL correction:  0.000000
       DOS:  cpu time    0.0000: real time    0.0032
    CHARGE:  cpu time    1.9080: real time    1.9113
    MIXING:  cpu time    0.0440: real time    0.0436
    --------------------------------------------
      LOOP:  cpu time   83.7600: real time   84.3268

 eigenvalue-minimisations  :  1328
 total energy-change (2. order) : 0.4563041E+01  (-0.5753099E+01)
 number of electron      56.0000001 magnetization      12.9089267
 augmentation part       -4.1742125 magnetization      10.5913769

 Broyden mixing:
  rms(total) = 0.86475E+00    rms(broyden)= 0.86473E+00
  rms(prec ) = 0.92825E+00
  weight for this iteration     100.00

 eigenvalues of (default mixing * dielectric matrix)
  average eigenvalue GAMMA=   0.5067
  0.7503  0.2631

 Free energy of the ion-electron system (eV)
  ---------------------------------------------------
  alpha Z        PSCENC =        14.98434709
  Ewald energy   TEWEN  =      5985.89955237
  -Hartree energ DENC   =     -7851.34109122
  -exchange      EXHF   =         0.00000000
  -V(xc)+E(xc)   XCENC  =      -227.86043701
  PAW double counting   =      1207.83220423     -896.86216943
  entropy T*S    EENTRO =         0.00000000
  eigenvalues    EBANDS =      -387.90546479
  atomic energy  EATOM  =      2114.66635543
  Solvation  Ediel_sol  =         0.00000000
  ---------------------------------------------------
  free energy    TOTEN  =       -40.58670332 eV

  energy without entropy =      -40.58670332  energy(sigma->0) =      -40.58670332


--------------------------------------------------------------------------------------------------------




--------------------------------------- Iteration      1(   8)  ---------------------------------------


    POTLOK:  cpu time   51.4000: real time   51.9296
    SETDIJ:  cpu time    0.0520: real time    0.0529
     EDDAV:  cpu time   31.7840: real time   31.8663
 BZINTS: Fermi energy: -2.346415; 56.000000 electrons
         Band energy:-391.006042;  BLOECHL correction:  0.000000
       DOS:  cpu time    0.0000: real time    0.0040
    CHARGE:  cpu time    1.9040: real time    1.9059
    MIXING:  cpu time    0.0400: real time    0.0420
    --------------------------------------------
      LOOP:  cpu time   85.1800: real time   85.8007

 eigenvalue-minimisations  :  1392
 total energy-change (2. order) : 0.1212530E+00  (-0.3011668E+00)
 number of electron      56.0000001 magnetization      11.2626919
 augmentation part       -3.7354121 magnetization       9.1321753

 Broyden mixing:
  rms(total) = 0.54603E+00    rms(broyden)= 0.54603E+00
  rms(prec ) = 0.57063E+00
  weight for this iteration     100.00

 eigenvalues of (default mixing * dielectric matrix)
  average eigenvalue GAMMA=   0.8153
  0.2899  1.0781  1.0781

 Free energy of the ion-electron system (eV)
  ---------------------------------------------------
  alpha Z        PSCENC =        14.98434709
  Ewald energy   TEWEN  =      5985.89955237
  -Hartree energ DENC   =     -7848.44357383
  -exchange      EXHF   =         0.00000000
  -V(xc)+E(xc)   XCENC  =      -227.51588639
  PAW double counting   =      1215.43462654     -904.48482944
  entropy T*S    EENTRO =         0.00000000
  eigenvalues    EBANDS =      -391.00604208
  atomic energy  EATOM  =      2114.66635543
  Solvation  Ediel_sol  =         0.00000000
  ---------------------------------------------------
  free energy    TOTEN  =       -40.46545031 eV

  energy without entropy =      -40.46545031  energy(sigma->0) =      -40.46545031


--------------------------------------------------------------------------------------------------------




--------------------------------------- Iteration      1(   9)  ---------------------------------------


    POTLOK:  cpu time   51.8880: real time   52.0173
    SETDIJ:  cpu time    0.0520: real time    0.0523
     EDDAV:  cpu time   33.3080: real time   33.4983
 BZINTS: Fermi energy: -2.281137; 56.000000 electrons
         Band energy:-389.328755;  BLOECHL correction:  0.000000
       DOS:  cpu time    0.0000: real time    0.0051
    CHARGE:  cpu time    1.8960: real time    1.8984
    MIXING:  cpu time    0.0440: real time    0.0415
    --------------------------------------------
      LOOP:  cpu time   87.1880: real time   87.5129

 eigenvalue-minimisations  :  1472
 total energy-change (2. order) :-0.3907408E+00  (-0.1711588E+00)
 number of electron      56.0000000 magnetization       9.8715908
 augmentation part       -2.9789481 magnetization       8.1882354

 Broyden mixing:
  rms(total) = 0.32906E+00    rms(broyden)= 0.32905E+00
  rms(prec ) = 0.33673E+00
  weight for this iteration     100.00

 eigenvalues of (default mixing * dielectric matrix)
  average eigenvalue GAMMA=   1.1062
  2.1448  1.3074  0.2882  0.6844

 Free energy of the ion-electron system (eV)
  ---------------------------------------------------
  alpha Z        PSCENC =        14.98434709
  Ewald energy   TEWEN  =      5985.89955237
  -Hartree energ DENC   =     -7851.17663338
  -exchange      EXHF   =         0.00000000
  -V(xc)+E(xc)   XCENC  =      -226.47662984
  PAW double counting   =      1240.69748719     -930.12191487
  entropy T*S    EENTRO =         0.00000000
  eigenvalues    EBANDS =      -389.32875507
  atomic energy  EATOM  =      2114.66635543
  Solvation  Ediel_sol  =         0.00000000
  ---------------------------------------------------
  free energy    TOTEN  =       -40.85619108 eV

  energy without entropy =      -40.85619108  energy(sigma->0) =      -40.85619108


--------------------------------------------------------------------------------------------------------




--------------------------------------- Iteration      1(  10)  ---------------------------------------


    POTLOK:  cpu time   51.3080: real time   51.9590
    SETDIJ:  cpu time    0.0520: real time    0.0517
     EDDAV:  cpu time   29.9320: real time   30.1249
 BZINTS: Fermi energy: -2.303238; 56.000000 electrons
         Band energy:-385.908499;  BLOECHL correction:  0.000000
       DOS:  cpu time    0.0000: real time    0.0050
    CHARGE:  cpu time    1.9000: real time    1.9122
    MIXING:  cpu time    0.0560: real time    0.0564
    --------------------------------------------
      LOOP:  cpu time   83.2480: real time   84.1092

 eigenvalue-minimisations  :  1312
 total energy-change (2. order) :-0.3997415E+00  (-0.2354799E-01)
 number of electron      56.0000000 magnetization       9.0958137
 augmentation part       -2.9224035 magnetization       7.5260594

 Broyden mixing:
  rms(total) = 0.28812E+00    rms(broyden)= 0.28811E+00
  rms(prec ) = 0.29822E+00
  weight for this iteration     100.00

 eigenvalues of (default mixing * dielectric matrix)
  average eigenvalue GAMMA=   1.1593
  2.8206  1.0331  1.0331  0.2880  0.6219

 Free energy of the ion-electron system (eV)
  ---------------------------------------------------
  alpha Z        PSCENC =        14.98434709
  Ewald energy   TEWEN  =      5985.89955237
  -Hartree energ DENC   =     -7855.00730791
  -exchange      EXHF   =         0.00000000
  -V(xc)+E(xc)   XCENC  =      -225.60435742
  PAW double counting   =      1248.53155314     -938.81757620
  entropy T*S    EENTRO =         0.00000000
  eigenvalues    EBANDS =      -385.90849907
  atomic energy  EATOM  =      2114.66635543
  Solvation  Ediel_sol  =         0.00000000
  ---------------------------------------------------
  free energy    TOTEN  =       -41.25593258 eV

  energy without entropy =      -41.25593258  energy(sigma->0) =      -41.25593258


--------------------------------------------------------------------------------------------------------




--------------------------------------- Iteration      1(  11)  ---------------------------------------


    POTLOK:  cpu time   51.5400: real time   52.1786
    SETDIJ:  cpu time    0.0560: real time    0.0534
     EDDAV:  cpu time   32.4720: real time   32.6903
 BZINTS: Fermi energy: -2.305958; 56.000000 electrons
         Band energy:-384.614048;  BLOECHL correction:  0.000000
       DOS:  cpu time    0.0000: real time    0.0045
    CHARGE:  cpu time    1.8760: real time    1.8998
    MIXING:  cpu time    0.0480: real time    0.0490
    --------------------------------------------
      LOOP:  cpu time   85.9920: real time   86.8756

 eigenvalue-minimisations  :  1440
 total energy-change (2. order) :-0.1279280E+00  (-0.6336984E-02)
 number of electron      56.0000000 magnetization       7.0410104
 augmentation part       -3.0566999 magnetization       5.4266984

 Broyden mixing:
  rms(total) = 0.18942E+00    rms(broyden)= 0.18942E+00
  rms(prec ) = 0.19342E+00
  weight for this iteration     100.00

 eigenvalues of (default mixing * dielectric matrix)
  average eigenvalue GAMMA=   1.5409
  4.4926  1.5027  1.5027  0.2881  0.8363  0.6231

 Free energy of the ion-electron system (eV)
  ---------------------------------------------------
  alpha Z        PSCENC =        14.98434709
  Ewald energy   TEWEN  =      5985.89955237
  -Hartree energ DENC   =     -7855.98924237
  -exchange      EXHF   =         0.00000000
  -V(xc)+E(xc)   XCENC  =      -226.03098822
  PAW double counting   =      1250.24689205     -940.54672875
  entropy T*S    EENTRO =         0.00000000
  eigenvalues    EBANDS =      -384.61404815
  atomic energy  EATOM  =      2114.66635543
  Solvation  Ediel_sol  =         0.00000000
  ---------------------------------------------------
  free energy    TOTEN  =       -41.38386056 eV

  energy without entropy =      -41.38386056  energy(sigma->0) =      -41.38386056


--------------------------------------------------------------------------------------------------------




--------------------------------------- Iteration      1(  12)  ---------------------------------------


    POTLOK:  cpu time   51.1480: real time   51.9165
    SETDIJ:  cpu time    0.0520: real time    0.0512
     EDDAV:  cpu time   26.3840: real time   26.4570
 BZINTS: Fermi energy: -2.305656; 56.000000 electrons
         Band energy:-382.237731;  BLOECHL correction:  0.000000
       DOS:  cpu time    0.0000: real time    0.0055
    CHARGE:  cpu time    1.8960: real time    1.9011
    MIXING:  cpu time    0.0440: real time    0.0443
    --------------------------------------------
      LOOP:  cpu time   79.5240: real time   80.3755

 eigenvalue-minimisations  :  1136
 total energy-change (2. order) :-0.2775428E+00  (-0.1867276E-01)
 number of electron      56.0000000 magnetization       6.3207229
 augmentation part       -3.2414917 magnetization       4.5366691

 Broyden mixing:
  rms(total) = 0.80467E-01    rms(broyden)= 0.80466E-01
  rms(prec ) = 0.82884E-01
  weight for this iteration     100.00

 eigenvalues of (default mixing * dielectric matrix)
  average eigenvalue GAMMA=   1.8123
  6.7562  1.8703  1.1988  1.1988  0.2881  0.7522  0.6217

 Free energy of the ion-electron system (eV)
  ---------------------------------------------------
  alpha Z        PSCENC =        14.98434709
  Ewald energy   TEWEN  =      5985.89955237
  -Hartree energ DENC   =     -7857.88442487
  -exchange      EXHF   =         0.00000000
  -V(xc)+E(xc)   XCENC  =      -226.63200481
  PAW double counting   =      1244.53620798     -934.99370538
  entropy T*S    EENTRO =         0.00000000
  eigenvalues    EBANDS =      -382.23773112
  atomic energy  EATOM  =      2114.66635543
  Solvation  Ediel_sol  =         0.00000000
  ---------------------------------------------------
  free energy    TOTEN  =       -41.66140332 eV

  energy without entropy =      -41.66140332  energy(sigma->0) =      -41.66140332


--------------------------------------------------------------------------------------------------------




--------------------------------------- Iteration      1(  13)  ---------------------------------------


    POTLOK:  cpu time   52.1600: real time   52.2702
    SETDIJ:  cpu time    0.0520: real time    0.0526
     EDDAV:  cpu time   26.9280: real time   27.0985
 BZINTS: Fermi energy: -2.294217; 56.000000 electrons
         Band energy:-381.789920;  BLOECHL correction:  0.000000
       DOS:  cpu time    0.0040: real time    0.0033
    CHARGE:  cpu time    1.7240: real time    1.9351
    MIXING:  cpu time    0.0480: real time    0.0473
    --------------------------------------------
      LOOP:  cpu time   80.9160: real time   81.4071

 eigenvalue-minimisations  :  1168
 total energy-change (2. order) :-0.9242148E-01  (-0.4388000E-02)
 number of electron      56.0000000 magnetization       6.0880788
 augmentation part       -3.2143919 magnetization       4.3431828

 Broyden mixing:
  rms(total) = 0.47071E-01    rms(broyden)= 0.47071E-01
  rms(prec ) = 0.48459E-01
  weight for this iteration     100.00

 eigenvalues of (default mixing * dielectric matrix)
  average eigenvalue GAMMA=   1.9579
  8.2157  2.2906  1.3523  1.3523  0.2881  0.8384  0.7167  0.6094

 Free energy of the ion-electron system (eV)
  ---------------------------------------------------
  alpha Z        PSCENC =        14.98434709
  Ewald energy   TEWEN  =      5985.89955237
  -Hartree energ DENC   =     -7858.62226552
  -exchange      EXHF   =         0.00000000
  -V(xc)+E(xc)   XCENC  =      -226.73388444
  PAW double counting   =      1241.27308397     -931.43109346
  entropy T*S    EENTRO =         0.00000000
  eigenvalues    EBANDS =      -381.78992024
  atomic energy  EATOM  =      2114.66635543
  Solvation  Ediel_sol  =         0.00000000
  ---------------------------------------------------
  free energy    TOTEN  =       -41.75382480 eV

  energy without entropy =      -41.75382480  energy(sigma->0) =      -41.75382480


--------------------------------------------------------------------------------------------------------




--------------------------------------- Iteration      1(  14)  ---------------------------------------


    POTLOK:  cpu time   50.9760: real time   52.1344
    SETDIJ:  cpu time    0.0840: real time    0.0840
     EDDAV:  cpu time   25.0560: real time   25.2138
 BZINTS: Fermi energy: -2.301097; 56.000000 electrons
         Band energy:-381.447023;  BLOECHL correction:  0.000000
       DOS:  cpu time    0.0000: real time    0.0041
    CHARGE:  cpu time    1.9000: real time    1.9002
    MIXING:  cpu time    0.0520: real time    0.0526
    --------------------------------------------
      LOOP:  cpu time   78.0680: real time   79.3891

 eigenvalue-minimisations  :  1072
 total energy-change (2. order) :-0.1209830E-01  (-0.1012062E-02)
 number of electron      56.0000000 magnetization       6.0227671
 augmentation part       -3.1901520 magnetization       4.2916550

 Broyden mixing:
  rms(total) = 0.14792E-01    rms(broyden)= 0.14792E-01
  rms(prec ) = 0.16125E-01
  weight for this iteration     100.00

 eigenvalues of (default mixing * dielectric matrix)
  average eigenvalue GAMMA=   1.9855
  9.1156  2.6338  1.3819  1.3819  0.2881  1.0287  0.6066  0.7368  0.6956

 Free energy of the ion-electron system (eV)
  ---------------------------------------------------
  alpha Z        PSCENC =        14.98434709
  Ewald energy   TEWEN  =      5985.89955237
  -Hartree energ DENC   =     -7859.07188619
  -exchange      EXHF   =         0.00000000
  -V(xc)+E(xc)   XCENC  =      -226.68680728
  PAW double counting   =      1239.09453568     -929.20499762
  entropy T*S    EENTRO =         0.00000000
  eigenvalues    EBANDS =      -381.44702257
  atomic energy  EATOM  =      2114.66635543
  Solvation  Ediel_sol  =         0.00000000
  ---------------------------------------------------
  free energy    TOTEN  =       -41.76592310 eV

  energy without entropy =      -41.76592310  energy(sigma->0) =      -41.76592310


--------------------------------------------------------------------------------------------------------




--------------------------------------- Iteration      1(  15)  ---------------------------------------


    POTLOK:  cpu time   51.9360: real time   52.0539
    SETDIJ:  cpu time    0.0520: real time    0.0512
     EDDAV:  cpu time   23.5720: real time   23.5868
 BZINTS: Fermi energy: -2.295298; 56.000000 electrons
         Band energy:-381.273170;  BLOECHL correction:  0.000000
       DOS:  cpu time    0.0000: real time    0.0051
    CHARGE:  cpu time    1.8920: real time    1.8892
    MIXING:  cpu time    0.0480: real time    0.0506
    --------------------------------------------
      LOOP:  cpu time   77.5000: real time   77.6367

 eigenvalue-minimisations  :   992
 total energy-change (2. order) :-0.7945171E-03  (-0.1575002E-03)
 number of electron      56.0000000 magnetization       6.0119859
 augmentation part       -3.1825939 magnetization       4.2878007

 Broyden mixing:
  rms(total) = 0.56364E-02    rms(broyden)= 0.56363E-02
  rms(prec ) = 0.75629E-02
  weight for this iteration     100.00

 eigenvalues of (default mixing * dielectric matrix)
  average eigenvalue GAMMA=   1.9230
  9.2536  2.7096  1.3651  1.3651  1.3670  0.2881  0.8516  0.7560  0.6114  0.6627

 Free energy of the ion-electron system (eV)
  ---------------------------------------------------
  alpha Z        PSCENC =        14.98434709
  Ewald energy   TEWEN  =      5985.89955237
  -Hartree energ DENC   =     -7859.25739121
  -exchange      EXHF   =         0.00000000
  -V(xc)+E(xc)   XCENC  =      -226.71329846
  PAW double counting   =      1239.28929061     -929.36240388
  entropy T*S    EENTRO =         0.00000000
  eigenvalues    EBANDS =      -381.27316957
  atomic energy  EATOM  =      2114.66635543
  Solvation  Ediel_sol  =         0.00000000
  ---------------------------------------------------
  free energy    TOTEN  =       -41.76671761 eV

  energy without entropy =      -41.76671761  energy(sigma->0) =      -41.76671761


--------------------------------------------------------------------------------------------------------




--------------------------------------- Iteration      1(  16)  ---------------------------------------


    POTLOK:  cpu time   52.3560: real time   52.4257
    SETDIJ:  cpu time    0.0640: real time    0.0653
     EDDAV:  cpu time   22.8880: real time   22.8962
 BZINTS: Fermi energy: -2.305288; 56.000000 electrons
         Band energy:-381.132235;  BLOECHL correction:  0.000000
       DOS:  cpu time    0.0040: real time    0.0019
    CHARGE:  cpu time    1.9000: real time    1.9019
    MIXING:  cpu time    0.0480: real time    0.0473
    --------------------------------------------
      LOOP:  cpu time   77.2600: real time   77.3383

 eigenvalue-minimisations  :   960
 total energy-change (2. order) :-0.2779060E-03  (-0.4438264E-04)
 number of electron      56.0000000 magnetization       6.0082071
 augmentation part       -3.1785333 magnetization       4.2853768

 Broyden mixing:
  rms(total) = 0.32172E-02    rms(broyden)= 0.32172E-02
  rms(prec ) = 0.55184E-02
  weight for this iteration     100.00

 eigenvalues of (default mixing * dielectric matrix)
  average eigenvalue GAMMA=   1.8802
  9.2777  2.7443  1.8624  1.3573  1.3573  0.2881  1.0107  0.8157  0.7252  0.6044
  0.6395

 Free energy of the ion-electron system (eV)
  ---------------------------------------------------
  alpha Z        PSCENC =        14.98434709
  Ewald energy   TEWEN  =      5985.89955237
  -Hartree energ DENC   =     -7859.38628699
  -exchange      EXHF   =         0.00000000
  -V(xc)+E(xc)   XCENC  =      -226.71195302
  PAW double counting   =      1239.82299924     -929.90977505
  entropy T*S    EENTRO =         0.00000000
  eigenvalues    EBANDS =      -381.13223459
  atomic energy  EATOM  =      2114.66635543
  Solvation  Ediel_sol  =         0.00000000
  ---------------------------------------------------
  free energy    TOTEN  =       -41.76699552 eV

  energy without entropy =      -41.76699552  energy(sigma->0) =      -41.76699552


--------------------------------------------------------------------------------------------------------




--------------------------------------- Iteration      1(  17)  ---------------------------------------


    POTLOK:  cpu time   51.9960: real time   52.2350
    SETDIJ:  cpu time    0.0560: real time    0.0555
     EDDAV:  cpu time   23.7840: real time   23.8669
 BZINTS: Fermi energy: -2.303611; 56.000000 electrons
         Band energy:-381.003960;  BLOECHL correction:  0.000000
       DOS:  cpu time    0.0040: real time    0.0053
    CHARGE:  cpu time    1.9240: real time    1.9245
    MIXING:  cpu time    0.0480: real time    0.0501
    --------------------------------------------
      LOOP:  cpu time   77.8120: real time   78.1373

 eigenvalue-minimisations  :  1008
 total energy-change (2. order) :-0.1593555E-03  (-0.2651273E-04)
 number of electron      56.0000000 magnetization       6.0055053
 augmentation part       -3.1782897 magnetization       4.2827373

 Broyden mixing:
  rms(total) = 0.14391E-02    rms(broyden)= 0.14391E-02
  rms(prec ) = 0.44242E-02
  weight for this iteration     100.00

 eigenvalues of (default mixing * dielectric matrix)
  average eigenvalue GAMMA=   1.8469
  9.2839  2.7838  2.2397  1.3621  1.3621  0.2881  1.2113  0.8957  0.7987  0.7018
  0.6033  0.6319

 Free energy of the ion-electron system (eV)
  ---------------------------------------------------
  alpha Z        PSCENC =        14.98434709
  Ewald energy   TEWEN  =      5985.89955237
  -Hartree energ DENC   =     -7859.50060431
  -exchange      EXHF   =         0.00000000
  -V(xc)+E(xc)   XCENC  =      -226.72093413
  PAW double counting   =      1240.22384001     -930.31575151
  entropy T*S    EENTRO =         0.00000000
  eigenvalues    EBANDS =      -381.00395983
  atomic energy  EATOM  =      2114.66635543
  Solvation  Ediel_sol  =         0.00000000
  ---------------------------------------------------
  free energy    TOTEN  =       -41.76715488 eV

  energy without entropy =      -41.76715488  energy(sigma->0) =      -41.76715488


--------------------------------------------------------------------------------------------------------




--------------------------------------- Iteration      1(  18)  ---------------------------------------


    POTLOK:  cpu time   52.0080: real time   52.1079
    SETDIJ:  cpu time    0.0560: real time    0.0554
     EDDAV:  cpu time   22.6400: real time   23.2314
 BZINTS: Fermi energy: -2.290632; 56.000000 electrons
         Band energy:-380.835431;  BLOECHL correction:  0.000000
       DOS:  cpu time    0.0040: real time    0.0016
    --------------------------------------------
      LOOP:  cpu time   74.7080: real time   75.3963

 eigenvalue-minimisations  :   960
 total energy-change (2. order) : 0.5521642E-04  (-0.1361390E-04)
 number of electron      56.0000000 magnetization       6.0055053
 augmentation part       -3.1782897 magnetization       4.2827373

 Free energy of the ion-electron system (eV)
  ---------------------------------------------------
  alpha Z        PSCENC =        14.98434709
  Ewald energy   TEWEN  =      5985.89955237
  -Hartree energ DENC   =     -7859.66218142
  -exchange      EXHF   =         0.00000000
  -V(xc)+E(xc)   XCENC  =      -226.72156928
  PAW double counting   =      1240.40607529     -930.50424819
  entropy T*S    EENTRO =         0.00000000
  eigenvalues    EBANDS =      -380.83543096
  atomic energy  EATOM  =      2114.66635543
  Solvation  Ediel_sol  =         0.00000000
  ---------------------------------------------------
  free energy    TOTEN  =       -41.76709966 eV

  energy without entropy =      -41.76709966  energy(sigma->0) =      -41.76709966


--------------------------------------------------------------------------------------------------------




 average (electrostatic) potential at core
  the test charge radii are     1.1394  1.1631  1.1897
  (the norm of the test charge is              1.0000)
       1 -50.7530       2 -50.7530       3 -39.2232       4 -39.2232       5 -96.5333
       6 -96.5332       7 -96.5332       8 -96.5333       9 -96.5332      10 -96.5332



 E-fermi :  -2.2906     XC(G=0):  -3.5962     alpha+bet : -3.0390


 spin component 1

 k-point     1 :       0.0000    0.0000    0.0000
  band No.  band energies     occupation 
      1     -14.7994      1.00000
      2     -13.8604      1.00000
      3     -12.8013      1.00000
      4     -12.8012      1.00000
      5     -12.7435      1.00000
      6     -12.7435      1.00000
      7     -11.1138      1.00000
      8      -9.0557      1.00000
      9      -6.7306      1.00000
     10      -6.6842      1.00000
     11      -6.6842      1.00000
     12      -6.5691      1.00000
     13      -6.2523      1.00000
     14      -6.2523      1.00000
     15      -5.4601      1.00000
     16      -4.6187      1.00000
     17      -4.6187      1.00000
     18      -4.3160      1.00000
     19      -4.3160      1.00000
     20      -4.1723      1.00000
     21      -3.6298      1.00000
     22      -3.6214      1.00000
     23      -3.6214      1.00000
     24      -3.3597      1.00000
     25      -3.3597      1.00000
     26      -3.3481      1.00000
     27      -3.2734      1.00000
     28      -3.2734      1.00000
     29      -2.9555      1.00000
     30      -2.3187      1.00000
     31      -2.3187      1.00000
     32      -1.2646      0.00000
     33      -1.2645      0.00000
     34      -0.8092      0.00000
     35      -0.5625      0.00000
     36      -0.5625      0.00000
     37      -0.5211      0.00000
     38       1.0144      0.00000
     39       1.0144      0.00000
     40       1.6082      0.00000
     41       1.6776      0.00000
     42       2.0454      0.00000
     43       2.1710      0.00000
     44       2.1947      0.00000
     45       2.1947      0.00000
     46       2.4226      0.00000
     47       3.0491      0.00000
     48       3.0491      0.00000

 k-point     2 :       0.2000    0.0000    0.0000
  band No.  band energies     occupation 
      1     -14.6779      1.00000
      2     -13.7659      1.00000
      3     -13.0638      1.00000
      4     -12.9046      1.00000
      5     -12.8425      1.00000
      6     -12.7923      1.00000
      7     -10.9188      1.00000
      8      -9.0915      1.00000
      9      -6.8780      1.00000
     10      -6.6790      1.00000
     11      -6.4927      1.00000
     12      -6.2407      1.00000
     13      -5.8684      1.00000
     14      -5.7169      1.00000
     15      -5.2426      1.00000
     16      -4.7693      1.00000
     17      -4.7554      1.00000
     18      -4.6095      1.00000
     19      -4.1827      1.00000
     20      -4.0853      1.00000
     21      -3.9551      1.00000
     22      -3.9491      1.00000
     23      -3.5183      1.00000
     24      -3.5105      1.00000
     25      -3.4429      1.00000
     26      -3.3443      1.00000
     27      -3.2275      1.00000
     28      -3.2019      1.00000
     29      -3.1423      1.00000
     30      -2.7648      1.00000
     31      -2.5541      1.00000
     32      -1.5335      0.00000
     33      -1.1871      0.00000
     34      -1.1123      0.00000
     35      -0.8236      0.00000
     36      -0.1234      0.00000
     37      -0.0523      0.00000
     38       1.0087      0.00000
     39       1.0317      0.00000
     40       1.7520      0.00000
     41       1.8121      0.00000
     42       1.8502      0.00000
     43       2.1121      0.00000
     44       2.2766      0.00000
     45       2.2997      0.00000
     46       2.5923      0.00000
     47       2.9052      0.00000
     48       3.0768      0.00000

 k-point     3 :       0.4000    0.0000    0.0000
  band No.  band energies     occupation 
      1     -14.3647      1.00000
      2     -13.5902      1.00000
      3     -13.5292      1.00000
      4     -13.0685      1.00000
      5     -12.9669      1.00000
      6     -12.9525      1.00000
      7     -10.6561      1.00000
      8      -9.1029      1.00000
      9      -6.7223      1.00000
     10      -6.5109      1.00000
     11      -6.0683      1.00000
     12      -5.6370      1.00000
     13      -5.2738      1.00000
     14      -5.2217      1.00000
     15      -5.2123      1.00000
     16      -5.0841      1.00000
     17      -4.8673      1.00000
     18      -4.8542      1.00000
     19      -4.4671      1.00000
     20      -4.3987      1.00000
     21      -4.3395      1.00000
     22      -3.8471      1.00000
     23      -3.6861      1.00000
     24      -3.6819      1.00000
     25      -3.4671      1.00000
     26      -3.3883      1.00000
     27      -3.3871      1.00000
     28      -3.0826      1.00000
     29      -3.0255      1.00000
     30      -2.9604      1.00000
     31      -2.9054      1.00000
     32      -1.5344      0.00000
     33      -1.3825      0.00000
     34      -1.1627      0.00000
     35      -1.0037      0.00000
     36      -0.5286      0.00000
     37      -0.2400      0.00000
     38       0.8565      0.00000
     39       1.4231      0.00000
     40       1.5844      0.00000
     41       1.7470      0.00000
     42       1.9572      0.00000
     43       1.9693      0.00000
     44       2.3658      0.00000
     45       2.6248      0.00000
     46       2.8629      0.00000
     47       3.0382      0.00000
     48       3.1119      0.00000

 k-point     4 :       0.4000    0.2000    0.0000
  band No.  band energies     occupation 
      1     -14.4548      1.00000
      2     -13.5974      1.00000
      3     -13.3486      1.00000
      4     -13.1820      1.00000
      5     -12.9630      1.00000
      6     -12.8626      1.00000
      7     -10.6799      1.00000
      8      -9.0862      1.00000
      9      -6.9011      1.00000
     10      -6.4151      1.00000
     11      -6.2709      1.00000
     12      -5.8468      1.00000
     13      -5.2720      1.00000
     14      -5.1968      1.00000
     15      -5.1162      1.00000
     16      -5.0362      1.00000
     17      -4.9635      1.00000
     18      -4.7369      1.00000
     19      -4.6485      1.00000
     20      -4.3213      1.00000
     21      -4.2920      1.00000
     22      -3.7905      1.00000
     23      -3.5877      1.00000
     24      -3.5709      1.00000
     25      -3.4616      1.00000
     26      -3.3727      1.00000
     27      -3.3115      1.00000
     28      -3.1972      1.00000
     29      -3.0462      1.00000
     30      -2.8829      1.00000
     31      -2.7899      1.00000
     32      -1.7836      0.00000
     33      -1.1392      0.00000
     34      -1.1173      0.00000
     35      -0.8228      0.00000
     36      -0.5348      0.00000
     37      -0.2173      0.00000
     38       0.8908      0.00000
     39       0.9127      0.00000
     40       1.5899      0.00000
     41       1.6682      0.00000
     42       1.9043      0.00000
     43       2.2400      0.00000
     44       2.2530      0.00000
     45       2.5519      0.00000
     46       2.9128      0.00000
     47       2.9708      0.00000
     48       3.1171      0.00000

 k-point     5 :      -0.4000    0.2000    0.0000
  band No.  band energies     occupation 
      1     -14.2052      1.00000
      2     -13.6537      1.00000
      3     -13.4169      1.00000
      4     -13.3070      1.00000
      5     -13.0974      1.00000
      6     -12.9448      1.00000
      7     -10.5294      1.00000
      8      -9.0542      1.00000
      9      -6.6779      1.00000
     10      -6.2084      1.00000
     11      -6.1811      1.00000
     12      -5.7650      1.00000
     13      -5.5401      1.00000
     14      -5.3489      1.00000
     15      -5.1194      1.00000
     16      -4.7434      1.00000
     17      -4.7160      1.00000
     18      -4.6790      1.00000
     19      -4.6685      1.00000
     20      -4.5178      1.00000
     21      -4.2871      1.00000
     22      -3.9801      1.00000
     23      -3.6561      1.00000
     24      -3.5236      1.00000
     25      -3.4897      1.00000
     26      -3.2840      1.00000
     27      -3.2461      1.00000
     28      -3.1174      1.00000
     29      -3.0725      1.00000
     30      -3.0052      1.00000
     31      -2.9222      1.00000
     32      -1.4448      0.00000
     33      -1.3792      0.00000
     34      -1.3254      0.00000
     35      -0.9775      0.00000
     36      -0.7869      0.00000
     37      -0.2904      0.00000
     38       0.4770      0.00000
     39       0.8238      0.00000
     40       1.3401      0.00000
     41       1.4889      0.00000
     42       1.6352      0.00000
     43       2.4680      0.00000
     44       2.7299      0.00000
     45       2.7841      0.00000
     46       2.8970      0.00000
     47       2.9444      0.00000
     48       3.5315      0.00000

 spin component 2

 k-point     1 :       0.0000    0.0000    0.0000
  band No.  band energies     occupation 
      1     -14.8062      1.00000
      2     -13.9156      1.00000
      3     -12.8711      1.00000
      4     -12.8711      1.00000
      5     -12.8122      1.00000
      6     -12.8121      1.00000
      7     -11.0621      1.00000
      8      -9.0108      1.00000
      9      -6.5690      1.00000
     10      -6.5690      1.00000
     11      -6.4276      1.00000
     12      -6.3744      1.00000
     13      -6.1497      1.00000
     14      -6.1497      1.00000
     15      -5.4251      1.00000
     16      -4.0458      1.00000
     17      -4.0458      1.00000
     18      -3.7672      1.00000
     19      -3.7671      1.00000
     20      -3.6745      1.00000
     21      -3.6503      1.00000
     22      -3.2894      1.00000
     23      -3.2894      1.00000
     24      -2.3287      1.00000
     25      -2.3287      1.00000
     26      -1.0366      0.00000
     27      -0.8030      0.00000
     28      -0.7792      0.00000
     29      -0.7792      0.00000
     30      -0.5584      0.00000
     31      -0.5584      0.00000
     32      -0.4956      0.00000
     33      -0.1356      0.00000
     34      -0.0175      0.00000
     35      -0.0175      0.00000
     36       0.5229      0.00000
     37       0.5229      0.00000
     38       1.1258      0.00000
     39       1.1258      0.00000
     40       1.7751      0.00000
     41       2.0383      0.00000
     42       2.1958      0.00000
     43       2.2110      0.00000
     44       2.2738      0.00000
     45       2.2738      0.00000
     46       2.5001      0.00000
     47       3.1780      0.00000
     48       3.3853      0.00000

 k-point     2 :       0.2000    0.0000    0.0000
  band No.  band energies     occupation 
      1     -14.6871      1.00000
      2     -13.8209      1.00000
      3     -13.1174      1.00000
      4     -12.9738      1.00000
      5     -12.9030      1.00000
      6     -12.8610      1.00000
      7     -10.8848      1.00000
      8      -9.0450      1.00000
      9      -6.6640      1.00000
     10      -6.5964      1.00000
     11      -6.3157      1.00000
     12      -6.1023      1.00000
     13      -5.7403      1.00000
     14      -5.5116      1.00000
     15      -5.0571      1.00000
     16      -4.4248      1.00000
     17      -4.1927      1.00000
     18      -4.0723      1.00000
     19      -3.9924      1.00000
     20      -3.6369      1.00000
     21      -3.5517      1.00000
     22      -3.4545      1.00000
     23      -3.4450      1.00000
     24      -3.0561      1.00000
     25      -2.6752      1.00000
     26      -1.0459      0.00000
     27      -0.9028      0.00000
     28      -0.7788      0.00000
     29      -0.6713      0.00000
     30      -0.5601      0.00000
     31      -0.5388      0.00000
     32      -0.4632      0.00000
     33       0.1019      0.00000
     34       0.1147      0.00000
     35       0.1637      0.00000
     36       0.3307      0.00000
     37       0.4278      0.00000
     38       1.0632      0.00000
     39       1.2136      0.00000
     40       1.9179      0.00000
     41       1.9222      0.00000
     42       2.1847      0.00000
     43       2.2246      0.00000
     44       2.3381      0.00000
     45       2.4937      0.00000
[...]
     34       0.1887      0.00000
     35       0.2035      0.00000
     36       0.2941      0.00000
     37       0.5719      0.00000
     38       1.0841      0.00000
     39       1.1062      0.00000
     40       1.8459      0.00000
     41       1.9291      0.00000
     42       2.1273      0.00000
     43       2.3924      0.00000
     44       2.6579      0.00000
     45       2.6836      0.00000
     46       2.9727      0.00000
     47       3.2465      0.00000
     48       3.3763      0.00000

 k-point     5 :      -0.4000    0.2000    0.0000
  band No.  band energies     occupation 
      1     -14.1484      1.00000
      2     -13.6217      1.00000
      3     -13.3976      1.00000
      4     -13.2917      1.00000
      5     -13.1123      1.00000
      6     -12.9570      1.00000
      7     -10.4848      1.00000
      8      -8.9483      1.00000
      9      -6.4432      1.00000
     10      -6.0524      1.00000
     11      -5.9353      1.00000
     12      -5.5615      1.00000
     13      -5.3705      1.00000
     14      -5.0685      1.00000
     15      -4.7004      1.00000
     16      -4.5270      1.00000
     17      -4.3381      1.00000
     18      -4.2565      1.00000
     19      -4.0664      1.00000
     20      -3.9665      1.00000
     21      -3.7184      1.00000
     22      -3.3886      1.00000
     23      -3.2454      1.00000
     24      -3.2400      1.00000
     25      -3.1540      1.00000
     26      -1.8634      0.00000
     27      -1.3225      0.00000
     28      -0.9517      0.00000
     29      -0.9350      0.00000
     30      -0.4547      0.00000
     31      -0.3877      0.00000
     32      -0.3828      0.00000
     33      -0.0163      0.00000
     34      -0.0149      0.00000
     35       0.3063      0.00000
     36       0.3829      0.00000
     37       0.6370      0.00000
     38       0.7257      0.00000
     39       1.1432      0.00000
     40       1.6757      0.00000
     41       1.8126      0.00000
     42       1.8867      0.00000
     43       2.8100      0.00000
     44       2.8556      0.00000
     45       2.9023      0.00000
     46       3.0359      0.00000
     47       3.1453      0.00000
     48       3.6104      0.00000


--------------------------------------------------------------------------------------------------------


 soft charge-density along one line, spin component           1
         0         1         2         3         4         5         6         7         8         9
 total charge-density along one line

 soft charge-density along one line, spin component           2
         0         1         2         3         4         5         6         7         8         9
 total charge-density along one line

 pseudopotential strength for first ion, spin component:           1
 -8.555   0.090  -0.000  -0.000  -0.000   0.619  -0.024   0.000
  0.090  -8.484   0.000  -0.000  -0.000  -0.024   0.600  -0.000
 -0.000   0.000  -8.631   0.000   0.000   0.000  -0.000   0.640
 -0.000  -0.000   0.000  -8.484  -0.090   0.000   0.000  -0.000
 -0.000  -0.000   0.000  -0.090  -8.555   0.000   0.000  -0.000
  0.619  -0.024   0.000   0.000   0.000   0.381   0.006  -0.000
 -0.024   0.600  -0.000   0.000   0.000   0.006   0.386   0.000
  0.000  -0.000   0.640  -0.000  -0.000  -0.000   0.000   0.376
  0.000   0.000  -0.000   0.600   0.024  -0.000  -0.000   0.000
  0.000   0.000  -0.000   0.024   0.619  -0.000  -0.000   0.000
 -0.000  -0.000   0.000  -0.000   0.000  -0.000   0.000  -0.000
  0.000   0.000  -0.000   0.000  -0.000  -0.000  -0.000   0.000
 -0.000   0.000   0.000  -0.000   0.001   0.000  -0.000  -0.000
 -0.000  -0.000   0.000  -0.000  -0.000   0.000   0.000  -0.000
  0.001  -0.000   0.000   0.000   0.000  -0.000   0.000  -0.000
  0.000  -0.000  -0.000   0.000  -0.001  -0.000   0.000   0.000
  0.000   0.000  -0.000   0.000   0.000  -0.000  -0.000   0.000
 -0.001   0.000  -0.000  -0.000   0.000   0.000  -0.000   0.000
 pseudopotential strength for first ion, spin component:           2
 -6.885  -0.165  -0.000   0.000   0.000   0.147   0.043   0.000
 -0.165  -7.049   0.000  -0.000   0.000   0.043   0.190  -0.000
 -0.000   0.000  -6.775   0.000   0.000   0.000  -0.000   0.118
  0.000  -0.000   0.000  -7.049   0.165  -0.000   0.000  -0.000
  0.000   0.000   0.000   0.165  -6.885  -0.000  -0.000  -0.000
  0.147   0.043   0.000  -0.000  -0.000   0.510  -0.011  -0.000
  0.043   0.190  -0.000   0.000  -0.000  -0.011   0.499   0.000
  0.000  -0.000   0.118  -0.000  -0.000  -0.000   0.000   0.517
 -0.000   0.000  -0.000   0.190  -0.043   0.000  -0.000   0.000
 -0.000  -0.000  -0.000  -0.043   0.147   0.000   0.000   0.000
  0.000  -0.000   0.005  -0.000   0.000  -0.000   0.000  -0.001
 -0.000   0.000  -0.001   0.000  -0.000   0.000  -0.000   0.000
  0.000   0.000   0.000  -0.000   0.001  -0.000  -0.000  -0.000
 -0.000  -0.000   0.000  -0.000   0.000   0.000   0.000   0.000
  0.001  -0.000   0.000   0.000  -0.000   0.000   0.000  -0.000
 -0.000  -0.000  -0.000   0.000  -0.001   0.000   0.000   0.000
  0.000   0.000  -0.000   0.000  -0.000  -0.000  -0.000   0.000
 -0.001   0.000  -0.000  -0.000   0.000   0.000  -0.000   0.000
 total augmentation occupancy for first ion, spin component:           1
  0.977  -0.037   0.000   0.000  -0.000   0.021   0.192  -0.000  -0.000   0.000  -0.000  -0.000   0.000   0.000   0.008   0.000
 -0.037   0.931  -0.000  -0.000   0.000   0.191   0.211   0.000   0.000  -0.000  -0.000  -0.000   0.000   0.000   0.003   0.000
  0.000  -0.000   1.024  -0.000  -0.000  -0.000   0.000  -0.110   0.000   0.000  -0.004  -0.011  -0.000   0.000   0.000  -0.000
  0.000  -0.000  -0.000   0.931   0.037  -0.000  -0.000   0.000   0.211  -0.191   0.000   0.000  -0.003   0.000   0.000  -0.000
 -0.000   0.000  -0.000   0.037   0.977  -0.000  -0.000   0.000  -0.192   0.021   0.000   0.000   0.008  -0.000  -0.000   0.000
  0.021   0.191  -0.000  -0.000  -0.000   0.122   0.054   0.000  -0.000  -0.000   0.000  -0.000  -0.000   0.000   0.018   0.000
  0.192   0.211   0.000  -0.000  -0.000   0.054   0.183   0.000  -0.000  -0.000   0.000   0.000   0.000   0.000  -0.003   0.000
 -0.000   0.000  -0.110   0.000   0.000   0.000   0.000   0.120   0.000  -0.000   0.044  -0.008  -0.000   0.001   0.000   0.000
 -0.000   0.000   0.000   0.211  -0.192  -0.000  -0.000   0.000   0.183  -0.054   0.000   0.000   0.003  -0.000   0.000  -0.000
  0.000  -0.000   0.000  -0.191   0.021  -0.000  -0.000  -0.000  -0.054   0.122  -0.000   0.000   0.018  -0.000   0.000  -0.001
 -0.000  -0.000  -0.004   0.000   0.000   0.000  -0.000   0.044  -0.000  -0.000   1.039  -0.134   0.000   0.000   0.000  -0.000
 -0.000  -0.000  -0.011   0.000   0.000  -0.000   0.000  -0.008   0.000   0.000  -0.134   0.048  -0.000  -0.000   0.000  -0.000
  0.000   0.000  -0.000  -0.003   0.008  -0.000   0.000  -0.000   0.003   0.018  -0.000  -0.000   0.197   0.000  -0.000  -0.001
  0.000  -0.000   0.000   0.000  -0.000   0.000   0.000   0.001   0.000  -0.000   0.000  -0.000   0.000   0.210   0.000  -0.000
  0.008   0.003   0.000   0.000  -0.000   0.018  -0.003   0.000   0.000   0.000   0.000   0.000  -0.000   0.000   0.197  -0.000
  0.000   0.000  -0.000  -0.000   0.000   0.000   0.000   0.000  -0.000  -0.001  -0.000  -0.000  -0.001   0.000  -0.000   0.000
  0.000  -0.000   0.000   0.000  -0.000  -0.000   0.000  -0.000   0.000   0.000  -0.000   0.000  -0.000  -0.001   0.000  -0.000
  0.000   0.000   0.000   0.000  -0.000  -0.001   0.000  -0.000   0.000  -0.000   0.000   0.000   0.000   0.000  -0.001  -0.000
 total augmentation occupancy for first ion, spin component:           2
  0.731  -0.281   0.000   0.000  -0.000  -0.144   0.045  -0.000  -0.000  -0.000  -0.000  -0.000   0.000  -0.000  -0.001   0.000
 -0.281   0.468  -0.000  -0.000   0.000   0.043  -0.093   0.000  -0.000  -0.000  -0.000  -0.000  -0.000  -0.000   0.005   0.000
  0.000  -0.000   0.921  -0.000  -0.000  -0.000   0.000  -0.200   0.000   0.000  -0.028  -0.003   0.000  -0.000  -0.000  -0.000
  0.000  -0.000  -0.000   0.468   0.281  -0.000   0.000   0.000  -0.093  -0.043  -0.000  -0.000  -0.005   0.000  -0.000   0.000
 -0.000   0.000  -0.000   0.281   0.731   0.000  -0.000   0.000  -0.045  -0.144   0.000   0.000  -0.001   0.000  -0.000   0.001
 -0.144   0.043  -0.000  -0.000   0.000  -0.003  -0.047   0.000   0.000  -0.000   0.000   0.000  -0.000   0.000  -0.001  -0.000
  0.045  -0.093   0.000   0.000  -0.000  -0.047  -0.045  -0.000   0.000   0.000   0.000   0.000  -0.000   0.000  -0.001   0.000
 -0.000   0.000  -0.200   0.000   0.000   0.000  -0.000   0.040  -0.000  -0.000   0.009   0.004   0.000   0.000  -0.000  -0.000
 -0.000  -0.000   0.000  -0.093  -0.045   0.000   0.000  -0.000  -0.045   0.047   0.000   0.000   0.001   0.000  -0.000  -0.000
 -0.000  -0.000   0.000  -0.043  -0.144  -0.000   0.000  -0.000   0.047  -0.003  -0.000  -0.000  -0.001  -0.000   0.000   0.000
 -0.000  -0.000  -0.028  -0.000   0.000   0.000   0.000   0.009   0.000  -0.000   0.180   0.065   0.000   0.000  -0.000  -0.000
 -0.000  -0.000  -0.003   0.000   0.000   0.000   0.000   0.004   0.000  -0.000   0.065  -0.016  -0.000   0.000   0.000  -0.000
  0.000  -0.000   0.000  -0.005  -0.001  -0.000  -0.000   0.000   0.001  -0.001   0.000   0.000   0.029   0.000  -0.000   0.003
 -0.000   0.000  -0.000  -0.000   0.000   0.000   0.000   0.000  -0.000  -0.000   0.000   0.000   0.000   0.023   0.000   0.000
 -0.001   0.005  -0.000  -0.000  -0.000  -0.001  -0.001  -0.000  -0.000   0.000  -0.000   0.000  -0.000   0.000   0.029  -0.000
  0.000   0.000  -0.000   0.000   0.001  -0.000   0.000  -0.000  -0.000   0.000  -0.000  -0.000   0.003   0.000  -0.000   0.000
  0.000   0.000   0.000   0.000  -0.000   0.000   0.000   0.000  -0.000  -0.000   0.000  -0.000   0.000   0.003   0.000   0.000
  0.001  -0.000   0.000   0.000  -0.000   0.000   0.000   0.000   0.000   0.000   0.000   0.000   0.000   0.000   0.003  -0.000


------------------------ aborting loop because EDIFF is reached ----------------------------------------





 total charge     

# of ion       s       p       d       tot
------------------------------------------
    1        0.332   0.403   4.234   4.969
    2        0.332   0.403   4.234   4.969
    3        1.174   1.126   0.073   2.374
    4        1.174   1.126   0.073   2.374
    5        1.392   1.971   0.033   3.396
    6        1.387   1.969   0.032   3.387
    7        1.391   1.968   0.033   3.391
    8        1.392   1.971   0.033   3.396
    9        1.387   1.969   0.032   3.387
   10        1.391   1.968   0.033   3.391
--------------------------------------------------
tot         11.353  14.875   8.807  35.035



 magnetization (x)

# of ion       s       p       d       tot
------------------------------------------
    1        0.043   0.047   3.044   3.133
    2        0.043   0.047   3.044   3.133
    3        0.002   0.046  -0.002   0.045
    4        0.002   0.046  -0.002   0.045
    5       -0.001  -0.102   0.005  -0.098
    6       -0.002  -0.088   0.005  -0.085
    7       -0.001  -0.098   0.005  -0.094
    8       -0.001  -0.102   0.005  -0.098
    9       -0.002  -0.088   0.005  -0.085
   10       -0.001  -0.098   0.005  -0.094
--------------------------------------------------
tot          0.080  -0.391   6.113   5.802

    CHARGE:  cpu time    1.8400: real time    1.8963
    FORLOC:  cpu time    0.0560: real time    0.0561
    FORNL :  cpu time    6.4080: real time    6.4460
    STRESS:  cpu time   19.2080: real time   19.2950
    FORCOR:  cpu time   52.0120: real time   52.0248
    FORHAR:  cpu time    0.3240: real time    0.3246
    MIXING:  cpu time    0.0400: real time    0.0440
    OFIELD:  cpu time    0.0000: real time    0.0000

  FORCE on cell =-STRESS in cart. coord.  units (eV):
  Direction    XX          YY          ZZ          XY          YZ          ZX
  --------------------------------------------------------------------------------------
  Alpha Z    14.91799    14.91799    14.91799
  Ewald    7401.99651  7401.99458 -8832.96132    -0.00107    -0.00037    -0.00068
  Hartree  7705.61673  7705.61713 -7562.93286    -0.00004     0.00005     0.00008
  E(xc)    -224.57647  -224.57648  -224.35141     0.00005     0.00002     0.00001
  Local  -15942.89912-15942.89841 15531.77327     0.00086     0.00023     0.00044
  n-local   681.70338   683.81308   693.44734     0.93982     0.77977     0.90407
  augment   -96.44877   -96.44861  -102.49709    -0.00005    -0.00005     0.00006
  Kinetic   461.25470   455.67496   482.47457    -4.11111     0.68440     0.72844
  Fock        0.00000     0.00000     0.00000     0.00000     0.00000     0.00000
  -------------------------------------------------------------------------------------
  Total      -0.17040    -0.17040    -0.12951     0.00000    -0.00000    -0.00000
  in kB      -0.28055    -0.28055    -0.21322     0.00000    -0.00000    -0.00000
  external pressure =       -0.26 kB  Pullay stress =        0.00 kB


 VOLUME and BASIS-vectors are now :
 -----------------------------------------------------------------------------
  energy-cutoff  :      520.00
  volume of cell :      973.14
      direct lattice vectors                 reciprocal lattice vectors
     6.919003983 -0.000000012  0.000000000     0.144529473 -0.083444123 -0.000000000
     3.459501499  5.992032844  0.000000000     0.000000000  0.166888271  0.000000000
     0.000000000 -0.000000000 23.472515614    -0.000000000 -0.000000000  0.042603018

  length of vectors
     6.919003983  6.919003413 23.472515614     0.166888257  0.166888271  0.042603018


 FORCES acting on ions
    electron-ion (+dipol)            ewald-force                    non-local-force                 convergence-correction
 -----------------------------------------------------------------------------------------------
   -.192E-04 -.223E-04 0.603E+00   0.304E-03 0.182E-03 -.605E+00   -.347E-17 -.100E-22 0.678E-03   0.174E-06 0.111E-06 0.122E-03
   0.192E-04 0.223E-04 -.603E+00   -.304E-03 -.182E-03 0.605E+00   -.347E-17 -.694E-17 -.678E-03   -.174E-06 -.111E-06 -.122E-03
   -.337E-04 -.174E-04 0.159E+03   -.140E-03 -.774E-04 -.157E+03   0.347E-17 0.697E-17 -.213E+01   -.105E-06 -.539E-07 0.463E-02
   0.337E-04 0.174E-04 -.159E+03   0.140E-03 0.774E-04 0.157E+03   -.121E-16 -.697E-17 0.213E+01   0.105E-06 0.539E-07 -.463E-02
   -.835E+01 0.128E+00 -.337E+03   0.463E+01 -.121E+00 0.341E+03   0.366E+01 -.141E-01 -.451E+01   -.332E-03 0.340E-04 -.929E-02
   0.429E+01 0.717E+01 -.337E+03   -.242E+01 -.395E+01 0.341E+03   -.184E+01 -.316E+01 -.451E+01   0.195E-03 0.270E-03 -.929E-02
   0.406E+01 -.730E+01 -.337E+03   -.221E+01 0.407E+01 0.341E+03   -.182E+01 0.318E+01 -.451E+01   0.137E-03 -.304E-03 -.929E-02
   0.835E+01 -.128E+00 0.337E+03   -.463E+01 0.121E+00 -.341E+03   -.366E+01 0.141E-01 0.451E+01   0.332E-03 -.340E-04 0.929E-02
   -.429E+01 -.717E+01 0.337E+03   0.242E+01 0.395E+01 -.341E+03   0.184E+01 0.316E+01 0.451E+01   -.195E-03 -.270E-03 0.929E-02
   -.406E+01 0.730E+01 0.337E+03   0.221E+01 -.407E+01 -.341E+03   0.182E+01 -.318E+01 0.451E+01   -.137E-03 0.304E-03 0.929E-02
 -----------------------------------------------------------------------------------------------
   -.207E-10 -.130E-09 -.385E-09   -.178E-14 0.355E-14 -.114E-12   -.222E-15 0.888E-15 0.000E+00   -.303E-12 -.220E-12 0.204E-10


 POSITION                                       TOTAL-FORCE (eV/Angst)
 -----------------------------------------------------------------------------------
      3.45950      1.99734     11.73440        -0.000000     -0.000000     -0.001058
      6.91901      3.99469     11.73811        -0.000000     -0.000000      0.001058
      0.00000     -0.00000     10.52151        -0.000000     -0.000000     -0.001225
      0.00000     -0.00000     12.95101        -0.000000     -0.000000      0.001225
      4.33196      0.00226     13.46821        -0.057559     -0.006840     -0.005770
      1.29548      2.23932     13.46821         0.022856      0.053268     -0.005770
      4.75107      3.75046     13.46821         0.034703     -0.046428     -0.005770
      6.04655      5.98977     10.00431         0.057559      0.006840      0.005770
      9.08302      3.75271     10.00431        -0.022856     -0.053268      0.005770
      5.62743      2.24158     10.00431        -0.034703      0.046428      0.005770
 -----------------------------------------------------------------------------------
    total drift:                               -0.000000     -0.000000     -0.000000


--------------------------------------------------------------------------------------------------------



  FREE ENERGIE OF THE ION-ELECTRON SYSTEM (eV)
  ---------------------------------------------------
  free  energy   TOTEN  =       -41.76922809 eV

  energy  without entropy=      -41.76922809  energy(sigma->0) =      -41.76922809

 d Force =-0.4193571E-03[-0.559E-03,-0.280E-03]  d Energy = 0.5448082E-03-0.964E-03
 d Force =-0.6676369E+00[-0.669E+00,-0.667E+00]  d Ewald  =-0.7508391E+01 0.684E+01


--------------------------------------------------------------------------------------------------------


    POTLOK:  cpu time   51.9800: real time   51.9904


--------------------------------------------------------------------------------------------------------




--------------------------------------------------------------------------------------------------------


  
 reached required accuracy - stopping structural energy minimisation
     LOOP+:  cpu time  517.1280: real time  522.1496
    4ORBIT:  cpu time    0.0000: real time    0.0000



 total charge     

# of ion       s       p       d       tot
------------------------------------------
    1        0.332   0.403   4.234   4.969
    2        0.332   0.403   4.234   4.969
    3        1.174   1.126   0.073   2.374
    4        1.174   1.126   0.073   2.374
    5        1.392   1.971   0.033   3.396
    6        1.387   1.969   0.032   3.387
    7        1.391   1.968   0.033   3.391
    8        1.392   1.971   0.033   3.396
    9        1.387   1.969   0.032   3.387
   10        1.391   1.968   0.033   3.391
--------------------------------------------------
tot         11.353  14.875   8.807  35.035



 magnetization (x)

# of ion       s       p       d       tot
------------------------------------------
    1        0.043   0.047   3.044   3.133
    2        0.043   0.047   3.044   3.133
    3        0.002   0.046  -0.002   0.045
    4        0.002   0.046  -0.002   0.045
    5       -0.001  -0.102   0.005  -0.098
    6       -0.002  -0.088   0.005  -0.085
    7       -0.001  -0.098   0.005  -0.094
    8       -0.001  -0.102   0.005  -0.098
    9       -0.002  -0.088   0.005  -0.085
   10       -0.001  -0.098   0.005  -0.094
--------------------------------------------------
tot          0.080  -0.391   6.113   5.802

 BZINTS: Fermi energy: -2.247601; 56.000000 electrons
         Band energy:-377.751254;  BLOECHL correction:  0.000000

 total amount of memory used by VASP MPI-rank0   128789. kBytes
=======================================================================

   base      :      30000. kBytes
   nonlr-proj:       8479. kBytes
   fftplans  :      11247. kBytes
   grid      :      66142. kBytes
   one-center:        311. kBytes
   wavefun   :      12610. kBytes

  
  
 General timing and accounting informations for this job:
 ========================================================
  
                  Total CPU time used (sec):     2771.200
                            User time (sec):     2698.012
                          System time (sec):       73.188
                         Elapsed time (sec):     2793.147
  
                   Maximum memory used (kb):      375856.
                   Average memory used (kb):           0.
  
                          Minor page faults:      2764284
                          Major page faults:            7
                 Voluntary context switches:          989
