PROCAR lm decomposed
# of k-points:    5         # of bands:   48         # of ions:   10

 k-point     1 :    0.00000000 0.00000000 0.00000000     weight = 0.04000000

band     1 # energy  -14.72146854 # occ.  1.00000000

ion      s     py     pz     px    dxy    dyz    dz2    dxz  x2-y2    tot
    1  0.014  0.000  0.000  0.000  0.000  0.000  0.000  0.000  0.000  0.014
    2  0.014  0.000  0.000  0.000  0.000  0.000  0.000  0.000  0.000  0.014
    3  0.080  0.000  0.001  0.000  0.000  0.000  0.000  0.000  0.000  0.081
    4  0.080  0.000  0.001  0.000  0.000  0.000  0.000  0.000  0.000  0.081
    5  0.073  0.000  0.001  0.001  0.000  0.000  0.000  0.000  0.000  0.074
    6  0.073  0.000  0.001  0.000  0.000  0.000  0.000  0.000  0.000  0.074
    7  0.073  0.000  0.001  0.000  0.000  0.000  0.000  0.000  0.000  0.074
    8  0.073  0.000  0.001  0.001  0.000  0.000  0.000  0.000  0.000  0.074
    9  0.073  0.000  0.001  0.000  0.000  0.000  0.000  0.000  0.000  0.074
   10  0.073  0.000  0.001  0.000  0.000  0.000  0.000  0.000  0.000  0.074
tot    0.623  0.002  0.005  0.002  0.000  0.000  0.000  0.000  0.000  0.633

band     2 # energy  -13.79103201 # occ.  1.00000000

ion      s     py     pz     px    dxy    dyz    dz2    dxz  x2-y2    tot
    1  0.000  0.000  0.006  0.000  0.000  0.000  0.000  0.000  0.000  0.006
    2  0.000  0.000  0.006  0.000  0.000  0.000  0.000  0.000  0.000  0.006
    3  0.044  0.000  0.002  0.000  0.000  0.000  0.001  0.000  0.000  0.047
    4  0.044  0.000  0.002  0.000  0.000  0.000  0.001  0.000  0.000  0.047
    5  0.093  0.000  0.000  0.000  0.000  0.000  0.000  0.000  0.000  0.094
    6  0.093  0.000  0.000  0.000  0.000  0.000  0.000  0.000  0.000  0.094
    7  0.093  0.000  0.000  0.000  0.000  0.000  0.000  0.000  0.000  0.094
    8  0.093  0.000  0.000  0.000  0.000  0.000  0.000  0.000  0.000  0.094
    9  0.093  0.000  0.000  0.000  0.000  0.000  0.000  0.000  0.000  0.094
   10  0.093  0.000  0.000  0.000  0.000  0.000  0.000  0.000  0.000  0.094
tot    0.646  0.001  0.017  0.001  0.000  0.000  0.002  0.000  0.000  0.668

band     3 # energy  -12.74618374 # occ.  1.00000000

ion      s     py     pz     px    dxy    dyz    dz2    dxz  x2-y2    tot
    1  0.000  0.006  0.000  0.001  0.000  0.000  0.000  0.001  0.002  0.010
    2  0.000  0.006  0.000  0.001  0.000  0.000  0.000  0.001  0.002  0.010
    3  0.000  0.001  0.000  0.006  0.000  0.000  0.000  0.000  0.001  0.008
    4  0.000  0.001  0.000  0.006  0.000  0.000  0.000  0.000  0.001  0.008
    5  0.205  0.000  0.001  0.000  0.000  0.000  0.000  0.000  0.000  0.206
    6  0.126  0.000  0.000  0.000  0.000  0.000  0.000  0.000  0.000  0.127
    7  0.010  0.000  0.000  0.000  0.000  0.000  0.000  0.000  0.000  0.010
    8  0.205  0.000  0.001  0.000  0.000  0.000  0.000  0.000  0.000  0.206
    9  0.126  0.000  0.000  0.000  0.000  0.000  0.000  0.000  0.000  0.127
   10  0.010  0.000  0.000  0.000  0.000  0.000  0.000  0.000  0.000  0.010
tot    0.682  0.014  0.003  0.014  0.001  0.000  0.000  0.003  0.005  0.721

band     4 # energy  -12.74615669 # occ.  1.00000000

ion      s     py     pz     px    dxy    dyz    dz2    dxz  x2-y2    tot
    1  0.000  0.001  0.000  0.006  0.002  0.001  0.000  0.000  0.000  0.010
    2  0.000  0.001  0.000  0.006  0.002  0.001  0.000  0.000  0.000  0.010
    3  0.000  0.006  0.000  0.001  0.001  0.000  0.000  0.000  0.000  0.008
    4  0.000  0.006  0.000  0.001  0.001  0.000  0.000  0.000  0.000  0.008
    5  0.022  0.000  0.000  0.000  0.000  0.000  0.000  0.000  0.000  0.022
    6  0.101  0.000  0.000  0.000  0.000  0.000  0.000  0.000  0.000  0.102
    7  0.218  0.000  0.001  0.000  0.000  0.000  0.000  0.000  0.000  0.219
    8  0.022  0.000  0.000  0.000  0.000  0.000  0.000  0.000  0.000  0.022
    9  0.101  0.000  0.000  0.000  0.000  0.000  0.000  0.000  0.000  0.102
   10  0.218  0.000  0.001  0.000  0.000  0.000  0.000  0.000  0.000  0.219
tot    0.682  0.014  0.003  0.014  0.005  0.003  0.000  0.000  0.001  0.721

band     5 # energy  -12.68540886 # occ.  1.00000000

ion      s     py     pz     px    dxy    dyz    dz2    dxz  x2-y2    tot
    1  0.000  0.000  0.000  0.001  0.002  0.007  0.000  0.000  0.000  0.010
    2  0.000  0.000  0.000  0.001  0.002  0.007  0.000  0.000  0.000  0.010
    3  0.000  0.000  0.000  0.010  0.000  0.000  0.000  0.000  0.001  0.011
    4  0.000  0.000  0.000  0.010  0.000  0.000  0.000  0.000  0.001  0.011
    5  0.220  0.000  0.001  0.001  0.000  0.000  0.000  0.000  0.000  0.222
    6  0.087  0.000  0.000  0.000  0.000  0.000  0.000  0.000  0.000  0.087
    7  0.030  0.000  0.000  0.000  0.000  0.000  0.000  0.000  0.000  0.031
    8  0.220  0.000  0.001  0.001  0.000  0.000  0.000  0.000  0.000  0.222
    9  0.087  0.000  0.000  0.000  0.000  0.000  0.000  0.000  0.000  0.087
   10  0.030  0.000  0.000  0.000  0.000  0.000  0.000  0.000  0.000  0.031
tot    0.675  0.001  0.002  0.026  0.004  0.013  0.000  0.000  0.002  0.724

band     6 # energy  -12.68537672 # occ.  1.00000000

ion      s     py     pz     px    dxy    dyz    dz2    dxz  x2-y2    tot
    1  0.000  0.001  0.000  0.000  0.000  0.000  0.000  0.007  0.002  0.010
    2  0.000  0.001  0.000  0.000  0.000  0.000  0.000  0.007  0.002  0.010
    3  0.000  0.010  0.000  0.000  0.001  0.000  0.000  0.000  0.000  0.011
    4  0.000  0.010  0.000  0.000  0.001  0.000  0.000  0.000  0.000  0.011
    5  0.005  0.000  0.000  0.000  0.000  0.000  0.000  0.000  0.000  0.005
    6  0.138  0.000  0.000  0.000  0.000  0.000  0.000  0.000  0.000  0.139
    7  0.195  0.001  0.000  0.000  0.000  0.000  0.000  0.000  0.000  0.196
    8  0.005  0.000  0.000  0.000  0.000  0.000  0.000  0.000  0.000  0.005
    9  0.138  0.000  0.000  0.000  0.000  0.000  0.000  0.000  0.000  0.139
   10  0.195  0.001  0.000  0.000  0.000  0.000  0.000  0.000  0.000  0.196
tot    0.675  0.026  0.002  0.001  0.002  0.000  0.000  0.013  0.004  0.724

band     7 # energy  -11.06436870 # occ.  1.00000000

ion      s     py     pz     px    dxy    dyz    dz2    dxz  x2-y2    tot
    1  0.012  0.000  0.000  0.000  0.000  0.000  0.001  0.000  0.000  0.013
    2  0.012  0.000  0.000  0.000  0.000  0.000  0.001  0.000  0.000  0.013
    3  0.215  0.000  0.011  0.000  0.000  0.000  0.001  0.000  0.000  0.228
    4  0.215  0.000  0.011  0.000  0.000  0.000  0.001  0.000  0.000  0.228
    5  0.026  0.000  0.000  0.008  0.000  0.000  0.000  0.000  0.000  0.034
    6  0.026  0.006  0.000  0.002  0.000  0.000  0.000  0.000  0.000  0.034
    7  0.026  0.006  0.000  0.002  0.000  0.000  0.000  0.000  0.000  0.034
    8  0.026  0.000  0.000  0.008  0.000  0.000  0.000  0.000  0.000  0.034
    9  0.026  0.006  0.000  0.002  0.000  0.000  0.000  0.000  0.000  0.034
   10  0.026  0.006  0.000  0.002  0.000  0.000  0.000  0.000  0.000  0.034
tot    0.609  0.023  0.022  0.023  0.001  0.001  0.004  0.001  0.001  0.685

band     8 # energy   -9.00031747 # occ.  1.00000000

ion      s     py     pz     px    dxy    dyz    dz2    dxz  x2-y2    tot
    1  0.000  0.000  0.006  0.000  0.000  0.000  0.000  0.000  0.000  0.006
    2  0.000  0.000  0.006  0.000  0.000  0.000  0.000  0.000  0.000  0.006
    3  0.224  0.000  0.010  0.000  0.000  0.000  0.001  0.000  0.000  0.234
    4  0.224  0.000  0.010  0.000  0.000  0.000  0.001  0.000  0.000  0.234
    5  0.015  0.000  0.000  0.017  0.000  0.000  0.000  0.000  0.001  0.033
    6  0.015  0.012  0.000  0.004  0.001  0.000  0.000  0.000  0.000  0.033
    7  0.015  0.013  0.000  0.004  0.001  0.000  0.000  0.000  0.000  0.033
    8  0.015  0.000  0.000  0.017  0.000  0.000  0.000  0.000  0.001  0.033
    9  0.015  0.012  0.000  0.004  0.001  0.000  0.000  0.000  0.000  0.033
   10  0.015  0.013  0.000  0.004  0.001  0.000  0.000  0.000  0.000  0.033
tot    0.539  0.050  0.032  0.050  0.003  0.000  0.002  0.000  0.003  0.679

band     9 # energy   -6.67355151 # occ.  1.00000000

ion      s     py     pz     px    dxy    dyz    dz2    dxz  x2-y2    tot
    1  0.082  0.000  0.000  0.000  0.000  0.000  0.021  0.000  0.000  0.102
    2  0.082  0.000  0.000  0.000  0.000  0.000  0.021  0.000  0.000  0.102
    3  0.000  0.000  0.000  0.000  0.000  0.000  0.000  0.000  0.000  0.000
    4  0.000  0.000  0.000  0.000  0.000  0.000  0.000  0.000  0.000  0.000
    5  0.000  0.049  0.000  0.000  0.000  0.000  0.000  0.000  0.000  0.050
    6  0.000  0.012  0.000  0.037  0.000  0.000  0.000  0.000  0.000  0.050
    7  0.000  0.012  0.000  0.037  0.000  0.000  0.000  0.000  0.000  0.050
    8  0.000  0.049  0.000  0.000  0.000  0.000  0.000  0.000  0.000  0.050
    9  0.000  0.012  0.000  0.037  0.000  0.000  0.000  0.000  0.000  0.050
   10  0.000  0.012  0.000  0.037  0.000  0.000  0.000  0.000  0.000  0.050
tot    0.163  0.147  0.000  0.147  0.001  0.001  0.042  0.001  0.001  0.505

band    10 # energy   -6.61752175 # occ.  1.00000000

ion      s     py     pz     px    dxy    dyz    dz2    dxz  x2-y2    tot
    1  0.000  0.002  0.000  0.002  0.003  0.020  0.000  0.016  0.002  0.046
    2  0.000  0.002  0.000  0.002  0.003  0.020  0.000  0.016  0.002  0.046
    3  0.000  0.025  0.000  0.031  0.000  0.000  0.000  0.000  0.000  0.055
    4  0.000  0.025  0.000  0.031  0.000  0.000  0.000  0.000  0.000  0.055
    5  0.004  0.009  0.002  0.035  0.000  0.000  0.000  0.000  0.000  0.049
    6  0.006  0.052  0.003  0.007  0.000  0.000  0.000  0.000  0.000  0.068
    7  0.000  0.001  0.000  0.021  0.000  0.000  0.000  0.000  0.000  0.022
    8  0.004  0.009  0.002  0.035  0.000  0.000  0.000  0.000  0.000  0.049
    9  0.006  0.052  0.003  0.007  0.000  0.000  0.000  0.000  0.000  0.068
   10  0.000  0.001  0.000  0.021  0.000  0.000  0.000  0.000  0.000  0.022
tot    0.020  0.175  0.009  0.191  0.006  0.042  0.000  0.034  0.005  0.482

band    11 # energy   -6.61750370 # occ.  1.00000000

ion      s     py     pz     px    dxy    dyz    dz2    dxz  x2-y2    tot
    1  0.000  0.002  0.000  0.002  0.002  0.016  0.000  0.020  0.003  0.046
    2  0.000  0.002  0.000  0.002  0.002  0.016  0.000  0.020  0.003  0.046
    3  0.000  0.031  0.000  0.025  0.000  0.000  0.000  0.000  0.000  0.055
    4  0.000  0.031  0.000  0.025  0.000  0.000  0.000  0.000  0.000  0.055
    5  0.003  0.011  0.001  0.028  0.000  0.000  0.000  0.000  0.000  0.044
    6  0.001  0.000  0.000  0.023  0.000  0.000  0.000  0.000  0.000  0.025
    7  0.006  0.052  0.003  0.010  0.000  0.000  0.000  0.000  0.000  0.071
    8  0.003  0.011  0.001  0.028  0.000  0.000  0.000  0.000  0.000  0.044
    9  0.001  0.000  0.000  0.023  0.000  0.000  0.000  0.000  0.000  0.025
   10  0.006  0.052  0.003  0.010  0.000  0.000  0.000  0.000  0.000  0.071
tot    0.020  0.191  0.009  0.175  0.005  0.034  0.000  0.042  0.006  0.482

band    12 # energy   -6.50235357 # occ.  1.00000000

ion      s     py     pz     px    dxy    dyz    dz2    dxz  x2-y2    tot
    1  0.044  0.000  0.000  0.000  0.000  0.000  0.017  0.000  0.000  0.061
    2  0.044  0.000  0.000  0.000  0.000  0.000  0.017  0.000  0.000  0.061
    3  0.001  0.000  0.042  0.000  0.000  0.000  0.000  0.000  0.000  0.043
    4  0.001  0.000  0.042  0.000  0.000  0.000  0.000  0.000  0.000  0.043
    5  0.004  0.000  0.035  0.005  0.000  0.000  0.000  0.000  0.000  0.044
    6  0.004  0.004  0.035  0.001  0.000  0.000  0.000  0.000  0.000  0.044
    7  0.004  0.004  0.035  0.001  0.000  0.000  0.000  0.000  0.000  0.044
    8  0.004  0.000  0.035  0.005  0.000  0.000  0.000  0.000  0.000  0.044
    9  0.004  0.004  0.035  0.001  0.000  0.000  0.000  0.000  0.000  0.044
   10  0.004  0.004  0.035  0.001  0.000  0.000  0.000  0.000  0.000  0.044
tot    0.113  0.015  0.291  0.015  0.000  0.000  0.036  0.000  0.000  0.471

band    13 # energy   -6.18434744 # occ.  1.00000000

ion      s     py     pz     px    dxy    dyz    dz2    dxz  x2-y2    tot
    1  0.000  0.014  0.000  0.002  0.002  0.002  0.000  0.016  0.011  0.047
    2  0.000  0.014  0.000  0.002  0.002  0.002  0.000  0.016  0.011  0.047
    3  0.000  0.005  0.000  0.034  0.000  0.000  0.000  0.001  0.000  0.040
    4  0.000  0.005  0.000  0.034  0.000  0.000  0.000  0.001  0.000  0.040
    5  0.000  0.003  0.006  0.064  0.000  0.000  0.000  0.000  0.000  0.073
    6  0.000  0.052  0.004  0.001  0.000  0.000  0.000  0.000  0.000  0.057
    7  0.000  0.012  0.000  0.011  0.000  0.000  0.000  0.000  0.000  0.024
    8  0.000  0.003  0.006  0.064  0.000  0.000  0.000  0.000  0.000  0.073
    9  0.000  0.052  0.004  0.001  0.000  0.000  0.000  0.000  0.000  0.057
   10  0.000  0.012  0.000  0.011  0.000  0.000  0.000  0.000  0.000  0.024
tot    0.000  0.172  0.019  0.223  0.004  0.006  0.001  0.034  0.023  0.482

band    14 # energy   -6.18432800 # occ.  1.00000000

ion      s     py     pz     px    dxy    dyz    dz2    dxz  x2-y2    tot
    1  0.000  0.002  0.000  0.014  0.011  0.016  0.000  0.002  0.002  0.047
    2  0.000  0.002  0.000  0.014  0.011  0.016  0.000  0.002  0.002  0.047
    3  0.000  0.034  0.000  0.005  0.000  0.001  0.000  0.000  0.000  0.040
    4  0.000  0.034  0.000  0.005  0.000  0.001  0.000  0.000  0.000  0.040
    5  0.000  0.019  0.001  0.009  0.000  0.000  0.000  0.000  0.000  0.030
    6  0.000  0.008  0.003  0.034  0.000  0.000  0.000  0.000  0.000  0.045
    7  0.000  0.048  0.006  0.024  0.000  0.000  0.000  0.000  0.000  0.079
    8  0.000  0.019  0.001  0.009  0.000  0.000  0.000  0.000  0.000  0.030
    9  0.000  0.008  0.003  0.034  0.000  0.000  0.000  0.000  0.000  0.045
   10  0.000  0.048  0.006  0.024  0.000  0.000  0.000  0.000  0.000  0.079
tot    0.000  0.223  0.019  0.172  0.023  0.034  0.001  0.006  0.004  0.482

band    15 # energy   -5.40760457 # occ.  1.00000000

ion      s     py     pz     px    dxy    dyz    dz2    dxz  x2-y2    tot
    1  0.000  0.000  0.042  0.000  0.000  0.000  0.000  0.000  0.000  0.042
    2  0.000  0.000  0.042  0.000  0.000  0.000  0.000  0.000  0.000  0.042
    3  0.000  0.000  0.000  0.000  0.000  0.000  0.000  0.000  0.000  0.000
    4  0.000  0.000  0.000  0.000  0.000  0.000  0.000  0.000  0.000  0.000
    5  0.000  0.063  0.000  0.000  0.000  0.000  0.000  0.000  0.000  0.064
    6  0.000  0.016  0.000  0.048  0.000  0.000  0.000  0.000  0.000  0.064
    7  0.000  0.016  0.000  0.047  0.000  0.000  0.000  0.000  0.000  0.064
    8  0.000  0.063  0.000  0.000  0.000  0.000  0.000  0.000  0.000  0.064
    9  0.000  0.016  0.000  0.048  0.000  0.000  0.000  0.000  0.000  0.064
   10  0.000  0.016  0.000  0.047  0.000  0.000  0.000  0.000  0.000  0.064
tot    0.000  0.190  0.084  0.190  0.001  0.000  0.000  0.000  0.001  0.466

band    16 # energy   -4.56707044 # occ.  1.00000000

ion      s     py     pz     px    dxy    dyz    dz2    dxz  x2-y2    tot
    1  0.000  0.002  0.000  0.000  0.006  0.004  0.000  0.100  0.132  0.245
    2  0.000  0.002  0.000  0.000  0.006  0.004  0.000  0.100  0.132  0.245
    3  0.000  0.000  0.000  0.000  0.000  0.000  0.000  0.000  0.000  0.000
    4  0.000  0.000  0.000  0.000  0.000  0.000  0.000  0.000  0.000  0.000
    5  0.002  0.001  0.039  0.002  0.000  0.000  0.000  0.000  0.000  0.045
    6  0.001  0.002  0.018  0.018  0.000  0.000  0.000  0.001  0.000  0.040
    7  0.000  0.006  0.004  0.026  0.000  0.000  0.000  0.001  0.000  0.037
    8  0.002  0.001  0.039  0.002  0.000  0.000  0.000  0.000  0.000  0.045
    9  0.001  0.002  0.018  0.018  0.000  0.000  0.000  0.001  0.000  0.040
   10  0.000  0.006  0.004  0.026  0.000  0.000  0.000  0.001  0.000  0.037
tot    0.007  0.023  0.121  0.091  0.012  0.009  0.001  0.204  0.266  0.733

band    17 # energy   -4.56705986 # occ.  1.00000000

ion      s     py     pz     px    dxy    dyz    dz2    dxz  x2-y2    tot
    1  0.000  0.000  0.000  0.002  0.132  0.100  0.000  0.004  0.006  0.245
    2  0.000  0.000  0.000  0.002  0.132  0.100  0.000  0.004  0.006  0.245
    3  0.000  0.000  0.000  0.000  0.000  0.000  0.000  0.000  0.000  0.000
    4  0.000  0.000  0.000  0.000  0.000  0.000  0.000  0.000  0.000  0.000
    5  0.000  0.034  0.002  0.000  0.000  0.001  0.000  0.000  0.000  0.036
    6  0.001  0.008  0.022  0.009  0.000  0.000  0.000  0.000  0.000  0.041
    7  0.002  0.004  0.037  0.001  0.000  0.000  0.000  0.000  0.000  0.044
    8  0.000  0.034  0.002  0.000  0.000  0.001  0.000  0.000  0.000  0.036
    9  0.001  0.008  0.022  0.009  0.000  0.000  0.000  0.000  0.000  0.041
   10  0.002  0.004  0.037  0.001  0.000  0.000  0.000  0.000  0.000  0.044
tot    0.007  0.091  0.121  0.023  0.266  0.204  0.001  0.009  0.012  0.733

band    18 # energy   -4.26390617 # occ.  1.00000000

ion      s     py     pz     px    dxy    dyz    dz2    dxz  x2-y2    tot
    1  0.000  0.000  0.000  0.001  0.091  0.086  0.000  0.020  0.021  0.219
    2  0.000  0.000  0.000  0.001  0.091  0.086  0.000  0.020  0.021  0.219
    3  0.000  0.000  0.000  0.001  0.000  0.000  0.000  0.001  0.000  0.002
    4  0.000  0.000  0.000  0.001  0.000  0.000  0.000  0.001  0.000  0.002
    5  0.004  0.001  0.062  0.001  0.000  0.000  0.000  0.000  0.000  0.069
    6  0.004  0.002  0.052  0.000  0.000  0.000  0.000  0.000  0.000  0.059
    7  0.000  0.001  0.000  0.003  0.000  0.000  0.000  0.000  0.000  0.005
    8  0.004  0.001  0.062  0.001  0.000  0.000  0.000  0.000  0.000  0.069
    9  0.004  0.002  0.052  0.000  0.000  0.000  0.000  0.000  0.000  0.059
   10  0.000  0.001  0.000  0.003  0.000  0.000  0.000  0.000  0.000  0.005
tot    0.016  0.009  0.230  0.012  0.182  0.172  0.000  0.043  0.043  0.707

band    19 # energy   -4.26389400 # occ.  1.00000000

ion      s     py     pz     px    dxy    dyz    dz2    dxz  x2-y2    tot
    1  0.000  0.001  0.000  0.000  0.021  0.020  0.000  0.086  0.091  0.219
    2  0.000  0.001  0.000  0.000  0.021  0.020  0.000  0.086  0.091  0.219
    3  0.000  0.001  0.000  0.000  0.000  0.001  0.000  0.000  0.000  0.002
    4  0.000  0.001  0.000  0.000  0.000  0.001  0.000  0.000  0.000  0.002
    5  0.001  0.004  0.015  0.000  0.000  0.000  0.000  0.000  0.000  0.020
    6  0.002  0.000  0.024  0.004  0.000  0.000  0.000  0.000  0.000  0.030
    7  0.005  0.001  0.076  0.001  0.000  0.000  0.000  0.000  0.000  0.083
    8  0.001  0.004  0.015  0.000  0.000  0.000  0.000  0.000  0.000  0.020
    9  0.002  0.000  0.024  0.004  0.000  0.000  0.000  0.000  0.000  0.030
   10  0.005  0.001  0.076  0.001  0.000  0.000  0.000  0.000  0.000  0.083
tot    0.016  0.012  0.230  0.009  0.043  0.043  0.000  0.172  0.182  0.707

band    20 # energy   -4.12270407 # occ.  1.00000000

ion      s     py     pz     px    dxy    dyz    dz2    dxz  x2-y2    tot
    1  0.000  0.000  0.000  0.000  0.000  0.000  0.215  0.000  0.000  0.215
    2  0.000  0.000  0.000  0.000  0.000  0.000  0.215  0.000  0.000  0.215
    3  0.003  0.000  0.080  0.000  0.000  0.000  0.003  0.000  0.000  0.087
    4  0.003  0.000  0.080  0.000  0.000  0.000  0.003  0.000  0.000  0.087
    5  0.000  0.000  0.003  0.013  0.000  0.000  0.000  0.000  0.001  0.017
    6  0.000  0.010  0.003  0.003  0.000  0.000  0.000  0.000  0.000  0.017
    7  0.000  0.010  0.003  0.003  0.000  0.000  0.000  0.000  0.000  0.017
    8  0.000  0.000  0.003  0.013  0.000  0.000  0.000  0.000  0.001  0.017
    9  0.000  0.010  0.003  0.003  0.000  0.000  0.000  0.000  0.000  0.017
   10  0.000  0.010  0.003  0.003  0.000  0.000  0.000  0.000  0.000  0.017
tot    0.007  0.039  0.180  0.039  0.002  0.001  0.439  0.001  0.002  0.709

band    21 # energy   -3.57889904 # occ.  1.00000000

ion      s     py     pz     px    dxy    dyz    dz2    dxz  x2-y2    tot
    1  0.000  0.000  0.015  0.000  0.000  0.000  0.000  0.000  0.000  0.015
    2  0.000  0.000  0.015  0.000  0.000  0.000  0.000  0.000  0.000  0.015
    3  0.002  0.000  0.006  0.000  0.000  0.000  0.002  0.000  0.000  0.010
    4  0.002  0.000  0.006  0.000  0.000  0.000  0.002  0.000  0.000  0.010
    5  0.000  0.000  0.067  0.000  0.000  0.000  0.000  0.000  0.000  0.068
    6  0.000  0.000  0.067  0.000  0.000  0.000  0.000  0.000  0.000  0.068
    7  0.000  0.000  0.067  0.000  0.000  0.000  0.000  0.000  0.000  0.068
    8  0.000  0.000  0.067  0.000  0.000  0.000  0.000  0.000  0.000  0.068
    9  0.000  0.000  0.067  0.000  0.000  0.000  0.000  0.000  0.000  0.068
   10  0.000  0.000  0.067  0.000  0.000  0.000  0.000  0.000  0.000  0.068
tot    0.005  0.001  0.444  0.001  0.000  0.000  0.004  0.000  0.000  0.456

band    22 # energy   -3.57402940 # occ.  1.00000000

ion      s     py     pz     px    dxy    dyz    dz2    dxz  x2-y2    tot
    1  0.000  0.009  0.000  0.000  0.000  0.000  0.000  0.106  0.002  0.117
    2  0.000  0.009  0.000  0.000  0.000  0.000  0.000  0.106  0.002  0.117
    3  0.000  0.000  0.000  0.027  0.000  0.000  0.000  0.000  0.002  0.029
    4  0.000  0.000  0.000  0.027  0.000  0.000  0.000  0.000  0.002  0.029
    5  0.004  0.000  0.064  0.031  0.000  0.000  0.000  0.000  0.001  0.101
    6  0.001  0.001  0.014  0.016  0.000  0.000  0.000  0.000  0.000  0.033
    7  0.001  0.001  0.018  0.017  0.000  0.000  0.000  0.000  0.000  0.038
    8  0.004  0.000  0.064  0.031  0.000  0.000  0.000  0.000  0.001  0.101
    9  0.001  0.001  0.014  0.016  0.000  0.000  0.000  0.000  0.000  0.033
   10  0.001  0.001  0.018  0.017  0.000  0.000  0.000  0.000  0.000  0.038
tot    0.012  0.022  0.193  0.182  0.000  0.001  0.000  0.213  0.012  0.636

band    23 # energy   -3.57401804 # occ.  1.00000000

ion      s     py     pz     px    dxy    dyz    dz2    dxz  x2-y2    tot
    1  0.000  0.000  0.000  0.009  0.002  0.106  0.000  0.000  0.000  0.117
    2  0.000  0.000  0.000  0.009  0.002  0.106  0.000  0.000  0.000  0.117
    3  0.000  0.027  0.000  0.000  0.002  0.000  0.000  0.000  0.000  0.029
    4  0.000  0.027  0.000  0.000  0.002  0.000  0.000  0.000  0.000  0.029
    5  0.000  0.013  0.000  0.000  0.000  0.001  0.000  0.000  0.000  0.014
    6  0.003  0.026  0.050  0.001  0.001  0.000  0.000  0.000  0.000  0.082
    7  0.003  0.026  0.046  0.001  0.001  0.000  0.000  0.000  0.000  0.076
    8  0.000  0.013  0.000  0.000  0.000  0.001  0.000  0.000  0.000  0.014
    9  0.003  0.026  0.050  0.001  0.001  0.000  0.000  0.000  0.000  0.082
   10  0.003  0.026  0.046  0.001  0.001  0.000  0.000  0.000  0.000  0.076
tot    0.012  0.182  0.193  0.022  0.012  0.213  0.000  0.001  0.000  0.636

band    24 # energy   -3.31133774 # occ.  1.00000000

ion      s     py     pz     px    dxy    dyz    dz2    dxz  x2-y2    tot
    1  0.000  0.001  0.000  0.007  0.183  0.114  0.000  0.020  0.034  0.360
    2  0.000  0.001  0.000  0.007  0.183  0.114  0.000  0.020  0.034  0.360
    3  0.000  0.001  0.000  0.000  0.000  0.000  0.000  0.000  0.000  0.002
    4  0.000  0.001  0.000  0.000  0.000  0.000  0.000  0.000  0.000  0.002
    5  0.000  0.003  0.004  0.000  0.001  0.000  0.000  0.000  0.000  0.008
    6  0.001  0.000  0.024  0.000  0.000  0.000  0.000  0.000  0.000  0.025
    7  0.000  0.001  0.008  0.002  0.000  0.000  0.000  0.000  0.000  0.012
    8  0.000  0.003  0.004  0.000  0.001  0.000  0.000  0.000  0.000  0.008
    9  0.001  0.000  0.024  0.000  0.000  0.000  0.000  0.000  0.000  0.025
   10  0.000  0.001  0.008  0.002  0.000  0.000  0.000  0.000  0.000  0.012
tot    0.002  0.013  0.072  0.019  0.370  0.228  0.000  0.041  0.069  0.814

band    25 # energy   -3.31133214 # occ.  1.00000000

ion      s     py     pz     px    dxy    dyz    dz2    dxz  x2-y2    tot
    1  0.000  0.007  0.000  0.001  0.034  0.020  0.000  0.114  0.183  0.360
    2  0.000  0.007  0.000  0.001  0.034  0.020  0.000  0.114  0.183  0.360
    3  0.000  0.000  0.000  0.001  0.000  0.000  0.000  0.000  0.000  0.002
    4  0.000  0.000  0.000  0.001  0.000  0.000  0.000  0.000  0.000  0.002
    5  0.000  0.001  0.020  0.000  0.000  0.000  0.000  0.000  0.000  0.022
    6  0.000  0.001  0.000  0.003  0.000  0.000  0.000  0.000  0.001  0.005
    7  0.000  0.000  0.016  0.001  0.000  0.000  0.000  0.000  0.001  0.018
    8  0.000  0.001  0.020  0.000  0.000  0.000  0.000  0.000  0.000  0.022
    9  0.000  0.001  0.000  0.003  0.000  0.000  0.000  0.000  0.001  0.005
   10  0.000  0.000  0.016  0.001  0.000  0.000  0.000  0.000  0.001  0.018
tot    0.002  0.019  0.072  0.013  0.069  0.041  0.000  0.228  0.370  0.814

band    26 # energy   -3.30295123 # occ.  1.00000000

ion      s     py     pz     px    dxy    dyz    dz2    dxz  x2-y2    tot
    1  0.013  0.000  0.000  0.000  0.000  0.000  0.432  0.000  0.000  0.445
    2  0.013  0.000  0.000  0.000  0.000  0.000  0.432  0.000  0.000  0.445
    3  0.000  0.000  0.000  0.000  0.000  0.000  0.000  0.000  0.000  0.000
    4  0.000  0.000  0.000  0.000  0.000  0.000  0.000  0.000  0.000  0.000
    5  0.000  0.002  0.000  0.000  0.000  0.000  0.000  0.000  0.000  0.002
    6  0.000  0.000  0.000  0.001  0.000  0.000  0.000  0.000  0.000  0.002
    7  0.000  0.000  0.000  0.001  0.000  0.000  0.000  0.000  0.000  0.002
    8  0.000  0.002  0.000  0.000  0.000  0.000  0.000  0.000  0.000  0.002
    9  0.000  0.000  0.000  0.001  0.000  0.000  0.000  0.000  0.000  0.002
   10  0.000  0.000  0.000  0.001  0.000  0.000  0.000  0.000  0.000  0.002
tot    0.026  0.005  0.000  0.005  0.000  0.001  0.864  0.001  0.000  0.902

band    27 # energy   -3.22936791 # occ.  1.00000000

ion      s     py     pz     px    dxy    dyz    dz2    dxz  x2-y2    tot
    1  0.000  0.000  0.000  0.000  0.264  0.131  0.000  0.006  0.012  0.413
    2  0.000  0.000  0.000  0.000  0.264  0.131  0.000  0.006  0.012  0.413
    3  0.000  0.001  0.000  0.014  0.000  0.000  0.000  0.000  0.000  0.015
    4  0.000  0.001  0.000  0.014  0.000  0.000  0.000  0.000  0.000  0.015
    5  0.002  0.000  0.005  0.004  0.000  0.000  0.000  0.000  0.000  0.012
    6  0.000  0.001  0.001  0.000  0.000  0.000  0.000  0.000  0.000  0.001
    7  0.001  0.002  0.002  0.000  0.000  0.000  0.000  0.000  0.000  0.006
    8  0.002  0.000  0.005  0.004  0.000  0.000  0.000  0.000  0.000  0.012
    9  0.000  0.001  0.001  0.000  0.000  0.000  0.000  0.000  0.000  0.001
   10  0.001  0.002  0.002  0.000  0.000  0.000  0.000  0.000  0.000  0.006
tot    0.006  0.006  0.016  0.036  0.528  0.261  0.001  0.012  0.026  0.893

band    28 # energy   -3.22936327 # occ.  1.00000000

ion      s     py     pz     px    dxy    dyz    dz2    dxz  x2-y2    tot
    1  0.000  0.000  0.000  0.000  0.012  0.006  0.000  0.131  0.264  0.413
    2  0.000  0.000  0.000  0.000  0.012  0.006  0.000  0.131  0.264  0.413
    3  0.000  0.014  0.000  0.001  0.000  0.000  0.000  0.000  0.000  0.015
    4  0.000  0.014  0.000  0.001  0.000  0.000  0.000  0.000  0.000  0.015
    5  0.000  0.000  0.000  0.000  0.000  0.000  0.000  0.000  0.000  0.001
    6  0.002  0.002  0.005  0.001  0.000  0.000  0.000  0.000  0.000  0.011
    7  0.001  0.001  0.003  0.001  0.000  0.000  0.000  0.000  0.000  0.007
    8  0.000  0.000  0.000  0.000  0.000  0.000  0.000  0.000  0.000  0.001
    9  0.002  0.002  0.005  0.001  0.000  0.000  0.000  0.000  0.000  0.011
   10  0.001  0.001  0.003  0.001  0.000  0.000  0.000  0.000  0.000  0.007
tot    0.006  0.036  0.016  0.006  0.026  0.012  0.001  0.261  0.528  0.893

band    29 # energy   -2.91597261 # occ.  1.00000000

ion      s     py     pz     px    dxy    dyz    dz2    dxz  x2-y2    tot
    1  0.015  0.000  0.000  0.000  0.000  0.000  0.200  0.000  0.000  0.214
    2  0.015  0.000  0.000  0.000  0.000  0.000  0.200  0.000  0.000  0.214
    3  0.000  0.000  0.077  0.000  0.000  0.000  0.002  0.000  0.000  0.080
    4  0.000  0.000  0.077  0.000  0.000  0.000  0.002  0.000  0.000  0.080
    5  0.002  0.000  0.015  0.004  0.000  0.000  0.001  0.000  0.000  0.022
    6  0.002  0.003  0.015  0.001  0.000  0.000  0.001  0.000  0.000  0.022
    7  0.002  0.003  0.015  0.001  0.000  0.000  0.001  0.000  0.000  0.022
    8  0.002  0.000  0.015  0.004  0.000  0.000  0.001  0.000  0.000  0.022
    9  0.002  0.003  0.015  0.001  0.000  0.000  0.001  0.000  0.000  0.022
   10  0.002  0.003  0.015  0.001  0.000  0.000  0.001  0.000  0.000  0.022
tot    0.039  0.013  0.243  0.013  0.000  0.001  0.408  0.001  0.000  0.718

band    30 # energy   -2.27518013 # occ.  1.00000000

ion      s     py     pz     px    dxy    dyz    dz2    dxz  x2-y2    tot
    1  0.000  0.003  0.000  0.024  0.006  0.002  0.000  0.000  0.001  0.036
    2  0.000  0.003  0.000  0.024  0.006  0.002  0.000  0.000  0.001  0.036
    3  0.000  0.002  0.000  0.017  0.000  0.000  0.000  0.000  0.003  0.023
    4  0.000  0.002  0.000  0.017  0.000  0.000  0.000  0.000  0.003  0.023
    5  0.002  0.013  0.010  0.034  0.000  0.000  0.000  0.000  0.001  0.061
    6  0.000  0.019  0.000  0.093  0.000  0.000  0.000  0.000  0.000  0.113
    7  0.001  0.000  0.006  0.070  0.001  0.000  0.000  0.000  0.000  0.079
    8  0.002  0.013  0.010  0.034  0.000  0.000  0.000  0.000  0.001  0.061
    9  0.000  0.019  0.000  0.093  0.000  0.000  0.000  0.000  0.000  0.113
   10  0.001  0.000  0.006  0.070  0.001  0.000  0.000  0.000  0.000  0.079
tot    0.007  0.075  0.033  0.477  0.013  0.004  0.001  0.002  0.011  0.623

band    31 # energy   -2.27515146 # occ.  1.00000000

ion      s     py     pz     px    dxy    dyz    dz2    dxz  x2-y2    tot
    1  0.000  0.024  0.000  0.003  0.001  0.000  0.000  0.002  0.006  0.036
    2  0.000  0.024  0.000  0.003  0.001  0.000  0.000  0.002  0.006  0.036
    3  0.000  0.017  0.000  0.002  0.003  0.000  0.000  0.000  0.000  0.023
    4  0.000  0.017  0.000  0.002  0.003  0.000  0.000  0.000  0.000  0.023
    5  0.000  0.101  0.001  0.004  0.000  0.001  0.000  0.000  0.000  0.108
    6  0.002  0.039  0.011  0.002  0.001  0.000  0.000  0.000  0.000  0.056
    7  0.001  0.057  0.005  0.026  0.001  0.000  0.000  0.000  0.000  0.089
    8  0.000  0.101  0.001  0.004  0.000  0.001  0.000  0.000  0.000  0.108
    9  0.002  0.039  0.011  0.002  0.001  0.000  0.000  0.000  0.000  0.056