<?xml version="1.0" encoding="ISO-8859-1"?>
<modeling>
 <generator>
  <i name="program" type="string">vasp </i>
  <i name="version" type="string">5.4.4.18Apr17-6-g9f103f2a35  </i>
  <i name="subversion" type="string">(build May  1 2020 15:48:39) complex            parallel </i>
  <i name="platform" type="string">LinuxGNU </i>
  <i name="date" type="string">2020 06 11 </i>
  <i name="time" type="string">17:06:28 </i>
 </generator>
 <incar>
  <i type="int" name="ISTART">     1</i>
  <i type="string" name="PREC">accurate</i>
  <i type="string" name="ALGO"> Normal</i>
  <i type="int" name="ISPIN">     2</i>
  <i name="AMIN">      0.01000000</i>
  <i type="int" name="NELM">   400</i>
  <i type="int" name="IBRION">     2</i>
  <i name="EDIFF">      0.00010000</i>
  <i type="int" name="NSW">    99</i>
  <i type="int" name="ISIF">     3</i>
  <i name="ENCUT">    520.00000000</i>
  <v name="MAGMOM">      5.00000000      5.00000000      0.60000000      0.60000000      0.60000000      0.60000000      0.60000000      0.60000000      0.60000000      0.60000000</v>
  <i type="string" name="LREAL"> Auto</i>
  <i type="int" name="ISMEAR">    -5</i>
  <i name="SIGMA">      0.05000000</i>
  <i type="logical" name="LWAVE"> F  </i>
  <i type="int" name="LORBIT">    11</i>
  <v type="int" name="KPOINT_BSE">    -1     0     0     0</v>
  <i type="int" name="NELM">   400</i>
  <i type="string" name="GGA"> Bo</i>
  <i name="PARAM1">      0.18333333</i>
  <i name="PARAM2">      0.22000000</i>
  <i type="logical" name="LUSE_VDW"> T  </i>
  <i name="AGGAC">      0.00000000</i>
 </incar>
 <structure name="primitive_cell" >
  <crystal>
   <varray name="basis" >
    <v>       6.90777700      -0.00000000       0.00000000 </v>
    <v>       3.45388800       5.98231000       0.00000000 </v>
    <v>       0.00000000       0.00000000      23.44458800 </v>
   </varray>
   <i name="volume">    968.83501932 </i>
   <varray name="rec_basis" >
    <v>       0.14476437      -0.08357974       0.00000000 </v>
    <v>       0.00000000       0.16715951      -0.00000000 </v>
    <v>      -0.00000000       0.00000000       0.04265377 </v>
   </varray>
  </crystal>
  <varray name="positions" >
   <v>       0.33333300       0.33333300       0.49992500 </v>
   <v>       0.00042000       0.37322400      -0.42624800 </v>
   <v>      -0.37364300       0.00042000      -0.42624800 </v>
   <v>       0.37322400      -0.37364300      -0.42624800 </v>
   <v>       0.37364300      -0.00042000       0.42624800 </v>
   <v>      -0.37322400       0.37364300       0.42624800 </v>
   <v>      -0.00042000      -0.37322400       0.42624800 </v>
   <v>      -0.33333300      -0.33333300      -0.49992500 </v>
   <v>       0.00000000       0.00000000       0.44821600 </v>
   <v>       0.00000000       0.00000000      -0.44821600 </v>
  </varray>
 </structure>
 <varray name="primitive_index" >
  <v type="int" >        1 </v>
  <v type="int" >        6 </v>
  <v type="int" >        5 </v>
  <v type="int" >        7 </v>
  <v type="int" >        8 </v>
  <v type="int" >       10 </v>
  <v type="int" >        9 </v>
  <v type="int" >        2 </v>
  <v type="int" >        3 </v>
  <v type="int" >        4 </v>
 </varray>
 <kpoints>
  <generation param="Gamma">
   <v type="int" name="divisions">       5        5        1 </v>
   <v name="usershift">      0.00000000       0.00000000       0.00000000 </v>
   <v name="genvec1">      0.20000000       0.00000000       0.00000000 </v>
   <v name="genvec2">      0.00000000       0.20000000       0.00000000 </v>
   <v name="genvec3">      0.00000000       0.00000000       1.00000000 </v>
   <v name="shift">      0.00000000       0.00000000       0.00000000 </v>
  </generation>
  <varray name="kpointlist" >
   <v>       0.00000000       0.00000000       0.00000000 </v>
   <v>       0.20000000       0.00000000       0.00000000 </v>
   <v>       0.40000000       0.00000000       0.00000000 </v>
   <v>       0.40000000       0.20000000       0.00000000 </v>
   <v>      -0.40000000       0.20000000       0.00000000 </v>
  </varray>
  <varray name="weights" >
   <v>       0.04000000 </v>
   <v>       0.24000000 </v>
   <v>       0.24000000 </v>
   <v>       0.24000000 </v>
   <v>       0.24000000 </v>
  </varray>
  <varray name="tetrahedronlist"  type="int" >
   <v type="int" >        6        1        1        2        2 </v>
   <v type="int" >       12        1        2        2        2 </v>
   <v type="int" >       12        2        2        3        4 </v>
   <v type="int" >       12        2        2        2        4 </v>
   <v type="int" >       12        2        3        3        4 </v>
   <v type="int" >       12        2        3        4        4 </v>
   <v type="int" >        6        2        2        4        4 </v>
   <v type="int" >       12        3        3        3        5 </v>
   <v type="int" >       12        3        3        4        5 </v>
   <v type="int" >       12        3        4        4        5 </v>
   <v type="int" >        6        3        3        5        5 </v>
   <v type="int" >       12        3        4        5        5 </v>
   <v type="int" >        6        4        4        5        5 </v>
   <v type="int" >       12        4        5        5        5 </v>
   <v type="int" >        6        5        5        5        5 </v>
  </varray>
  <i name="volumeweight">      0.00666667 </i>
 </kpoints>
 <parameters>
  <separator name="general" >
   <i type="string" name="SYSTEM">unknown system</i>
   <i type="logical" name="LCOMPAT"> F  </i>
  </separator>
  <separator name="electronic" >
   <i type="string" name="PREC">accura</i>
   <i name="ENMAX">    520.00000000</i>
   <i name="ENAUG">    402.10800000</i>
   <i name="EDIFF">      0.00010000</i>
   <i type="int" name="IALGO">    38</i>
   <i type="int" name="IWAVPR">    11</i>
   <i type="int" name="NBANDS">    48</i>
   <i name="NELECT">     56.00000000</i>
   <i type="int" name="TURBO">     0</i>
   <i type="int" name="IRESTART">     0</i>
   <i type="int" name="NREBOOT">     0</i>
   <i type="int" name="NMIN">     0</i>
   <i name="EREF">      0.00000000</i>
   <separator name="electronic smearing" >
    <i type="int" name="ISMEAR">    -5</i>
    <i name="SIGMA">      0.05000000</i>
    <i name="KSPACING">      0.50000000</i>
    <i type="logical" name="KGAMMA"> T  </i>
   </separator>
   <separator name="electronic projectors" >
    <i type="logical" name="LREAL"> T  </i>
    <v name="ROPT">     -0.00025000     -0.00025000     -0.00025000</v>
    <i type="int" name="LMAXPAW">  -100</i>
    <i type="int" name="LMAXMIX">     2</i>
    <i type="logical" name="NLSPLINE"> F  </i>
   </separator>
   <separator name="electronic startup" >
    <i type="int" name="ISTART">     0</i>
    <i type="int" name="ICHARG">     2</i>
    <i type="int" name="INIWAV">     1</i>
   </separator>
   <separator name="electronic spin" >
    <i type="int" name="ISPIN">     2</i>
    <i type="logical" name="LNONCOLLINEAR"> F  </i>
    <v name="MAGMOM">      5.00000000      5.00000000      0.60000000      0.60000000      0.60000000      0.60000000      0.60000000      0.60000000      0.60000000      0.60000000</v>
    <i name="NUPDOWN">     -1.00000000</i>
    <i type="logical" name="LSORBIT"> F  </i>
    <v name="SAXIS">      0.00000000      0.00000000      1.00000000</v>
    <i type="logical" name="LSPIRAL"> F  </i>
    <v name="QSPIRAL">      0.00000000      0.00000000      0.00000000</v>
    <i type="logical" name="LZEROZ"> F  </i>
   </separator>
   <separator name="electronic exchange-correlation" >
    <i type="logical" name="LASPH"> F  </i>
    <i type="logical" name="LMETAGGA"> F  </i>
   </separator>
   <separator name="electronic convergence" >
    <i type="int" name="NELM">   400</i>
    <i type="int" name="NELMDL">     0</i>
    <i type="int" name="NELMIN">     2</i>
    <i name="ENINI">    520.00000000</i>
    <separator name="electronic convergence detail" >
     <i type="logical" name="LDIAG"> T  </i>
     <i type="logical" name="LSUBROT"> F  </i>
     <i name="WEIMIN">      0.00100000</i>
     <i name="EBREAK">      0.00000052</i>
     <i name="DEPER">      0.30000000</i>
     <i type="int" name="NRMM">     4</i>
     <i name="TIME">      0.40000000</i>
    </separator>
   </separator>
   <separator name="electronic mixer" >
    <i name="AMIX">      0.40000000</i>
    <i name="BMIX">      1.00000000</i>
    <i name="AMIN">      0.01000000</i>
    <i name="AMIX_MAG">      1.60000000</i>
    <i name="BMIX_MAG">      1.00000000</i>
    <separator name="electronic mixer details" >
     <i type="int" name="IMIX">     4</i>
     <i type="logical" name="MIXFIRST"> F  </i>
     <i type="int" name="MAXMIX">   -45</i>
     <i name="WC">    100.00000000</i>
     <i type="int" name="INIMIX">     1</i>
     <i type="int" name="MIXPRE">     1</i>
     <i type="int" name="MREMOVE">     5</i>
    </separator>
   </separator>
   <separator name="electronic dipolcorrection" >
    <i type="logical" name="LDIPOL"> F  </i>
    <i type="logical" name="LMONO"> F  </i>
    <i type="int" name="IDIPOL">     0</i>
    <i name="EPSILON">      1.00000000</i>
    <v name="DIPOL">   -100.00000000   -100.00000000   -100.00000000</v>
    <i name="EFIELD">      0.00000000</i>
   </separator>
  </separator>
  <separator name="grids" >
   <i type="int" name="NGX">    54</i>
   <i type="int" name="NGY">    54</i>
   <i type="int" name="NGZ">   180</i>
   <i type="int" name="NGXF">   108</i>
   <i type="int" name="NGYF">   108</i>
   <i type="int" name="NGZF">   360</i>
   <i type="logical" name="ADDGRID"> F  </i>
  </separator>
  <separator name="ionic" >
   <i type="int" name="NSW">    99</i>
   <i type="int" name="IBRION">     2</i>
   <i type="int" name="MDALGO">     0</i>
   <i type="int" name="ISIF">     3</i>
   <i name="PSTRESS">      0.00000000</i>
   <i name="EDIFFG">      0.00100000</i>
   <i type="int" name="NFREE">     1</i>
   <i name="POTIM">      0.50000000</i>
   <i name="SMASS">     -3.00000000</i>
   <i name="SCALEE">      1.00000000</i>
  </separator>
  <separator name="ionic md" >
   <i name="TEBEG">      0.00010000</i>
   <i name="TEEND">      0.00010000</i>
   <i type="int" name="NBLOCK">     1</i>
   <i type="int" name="KBLOCK">    99</i>
   <i type="int" name="NPACO">   256</i>
   <i name="APACO">     16.00000000</i>
  </separator>
  <separator name="symmetry" >
   <i type="int" name="ISYM">     2</i>
   <i name="SYMPREC">      0.00001000</i>
  </separator>
  <separator name="dos" >
   <i type="int" name="LORBIT">    11</i>
   <v name="RWIGS">     -1.00000000     -1.00000000     -1.00000000</v>
   <i type="int" name="NEDOS">   301</i>
   <i name="EMIN">     10.00000000</i>
   <i name="EMAX">    -10.00000000</i>
   <i name="EFERMI">      0.00000000</i>
  </separator>
  <separator name="writing" >
   <i type="int" name="NWRITE">     2</i>
   <i type="logical" name="LWAVE"> F  </i>
   <i type="logical" name="LDOWNSAMPLE"> F  </i>
   <i type="logical" name="LCHARG"> T  </i>
   <i type="logical" name="LPARD"> F  </i>
   <i type="logical" name="LVTOT"> F  </i>
   <i type="logical" name="LVHAR"> F  </i>
   <i type="logical" name="LELF"> F  </i>
   <i type="logical" name="LOPTICS"> F  </i>
   <v name="STM">      0.00000000      0.00000000      0.00000000      0.00000000      0.00000000      0.00000000      0.00000000</v>
  </separator>
  <separator name="performance" >
   <i type="int" name="NPAR">    16</i>
   <i type="int" name="NSIM">     4</i>
   <i type="int" name="NBLK">    -1</i>
   <i type="logical" name="LPLANE"> T  </i>
   <i type="logical" name="LSCALAPACK"> T  </i>
   <i type="logical" name="LSCAAWARE"> F  </i>
   <i type="logical" name="LSCALU"> F  </i>
   <i type="logical" name="LASYNC"> F  </i>
   <i type="logical" name="LORBITALREAL"> F  </i>
  </separator>
  <separator name="miscellaneous" >
   <i type="int" name="IDIOT">     3</i>
   <i type="int" name="ISPECIAL">     0</i>
   <i type="logical" name="LMUSIC"> F  </i>
   <v name="POMASS">     51.99600000     72.61000000    127.60000000</v>
   <v name="DARWINR">      0.00000000      0.00000000      0.00000000</v>
   <v name="DARWINV">      1.00000000      1.00000000      1.00000000</v>
   <i type="logical" name="LCORR"> T  </i>
  </separator>
  <i type="logical" name="GGA_COMPAT"> T  </i>
  <i type="logical" name="LBERRY"> F  </i>
  <i type="int" name="ICORELEVEL">     0</i>
  <i type="logical" name="LDAU"> F  </i>
  <i type="int" name="I_CONSTRAINED_M">     0</i>
  <separator name="electronic exchange-correlation" >
   <i type="string" name="GGA">BO</i>
   <i type="int" name="VOSKOWN">     0</i>
   <i type="logical" name="LHFCALC"> F  </i>
   <i type="string" name="PRECFOCK"></i>
   <i type="logical" name="LSYMGRAD"> F  </i>
   <i type="logical" name="LHFONE"> F  </i>
   <i type="logical" name="LRHFCALC"> F  </i>
   <i type="logical" name="LTHOMAS"> F  </i>
   <i type="logical" name="LMODELHF"> F  </i>
   <i name="ENCUT4O">     -1.00000000</i>
   <i type="int" name="EXXOEP">     0</i>
   <i type="int" name="FOURORBIT">     0</i>
   <i name="AEXX">      0.00000000</i>
   <i name="HFALPHA">      0.00000000</i>
   <i name="MCALPHA">      0.00000000</i>
   <i name="ALDAX">      1.00000000</i>
   <i name="AGGAX">      1.00000000</i>
   <i name="ALDAC">      1.00000000</i>
   <i name="AGGAC">      0.00000000</i>
   <i type="int" name="NKREDX">     1</i>
   <i type="int" name="NKREDY">     1</i>
   <i type="int" name="NKREDZ">     1</i>
   <i type="logical" name="SHIFTRED"> F  </i>
   <i type="logical" name="ODDONLY"> F  </i>
   <i type="logical" name="EVENONLY"> F  </i>
   <i type="int" name="LMAXFOCK">     0</i>
   <i type="int" name="NMAXFOCKAE">     0</i>
   <i type="logical" name="LFOCKAEDFT"> F  </i>
   <i name="HFSCREEN">      0.00000000</i>
   <i name="HFSCREENC">      0.00000000</i>
   <i type="int" name="NBANDSGWLOW">     0</i>
  </separator>
  <separator name="vdW DFT" >
   <i type="logical" name="LUSE_VDW"> T  </i>
   <i name="Zab_VDW">     -0.84910000</i>
   <i name="PARAM1">      0.18333333</i>
   <i name="PARAM2">      0.22000000</i>
   <i name="PARAM3">      0.00000000</i>
  </separator>
  <separator name="model GW" >
   <i type="int" name="MODEL_GW">     0</i>
   <i name="MODEL_EPS0">     58.13010116</i>
   <i name="MODEL_ALPHA">      1.00000000</i>
  </separator>
  <separator name="linear response parameters" >
   <i type="logical" name="LEPSILON"> F  </i>
   <i type="logical" name="LRPA"> F  </i>
   <i type="logical" name="LNABLA"> F  </i>
   <i type="logical" name="LVEL"> F  </i>
   <i type="int" name="KINTER">     0</i>
   <i name="CSHIFT">      0.10000000</i>
   <i name="OMEGAMAX">     -1.00000000</i>
   <i name="DEG_THRESHOLD">      0.00200000</i>
   <i name="RTIME">     -0.10000000</i>
   <i name="WPLASMAI">      0.00000000</i>
   <v name="DFIELD">      0.00000000      0.00000000      0.00000000</v>
   <v name="WPLASMA">      0.00000000      0.00000000      0.00000000      0.00000000      0.00000000      0.00000000      0.00000000      0.00000000      0.00000000</v>
  </separator>
  <separator name="orbital magnetization" >
   <i type="logical" name="NUCIND"> F  </i>
   <v name="MAGPOS">      0.00000000      0.00000000      0.00000000</v>
   <i type="logical" name="LNICSALL"> T  </i>
   <i type="logical" name="ORBITALMAG"> F  </i>
   <i type="logical" name="LMAGBLOCH"> F  </i>
   <i type="logical" name="LCHIMAG"> F  </i>
   <i type="logical" name="LGAUGE"> T  </i>
   <i type="int" name="MAGATOM">     0</i>
   <v name="MAGDIPOL">      0.00000000      0.00000000      0.00000000</v>
   <v name="AVECCONST">      0.00000000      0.00000000      0.00000000</v>
  </separator>
  <separator name="response functions" >
   <i type="logical" name="LADDER"> F  </i>
   <i type="logical" name="LRPAFORCE"> F  </i>
   <i type="logical" name="LFXC"> F  </i>
   <i type="logical" name="LHARTREE"> T  </i>
   <i type="int" name="IBSE">     0</i>
   <v type="int" name="KPOINT">    -1     0     0     0</v>
   <i type="logical" name="LTCTE"> F  </i>
   <i type="logical" name="LTETE"> F  </i>
   <i type="logical" name="LTRIPLET"> F  </i>
   <i type="logical" name="LFXCEPS"> F  </i>
   <i type="logical" name="LFXHEG"> F  </i>
   <i type="int" name="NATURALO">     2</i>
   <i type="logical" name="L2ORDER"> F  </i>
   <i type="logical" name="LMP2LT"> F  </i>
   <i type="logical" name="LUSEW"> F  </i>
   <i name="ENCUTGW">     -2.00000000</i>
   <i name="ENCUTGWSOFT">     -2.00000000</i>
   <i name="ENCUTLF">     -1.00000000</i>
   <i type="int" name="LMAXMP2">    -1</i>
   <i name="SCISSOR">      0.00000000</i>
   <i type="int" name="NOMEGA">     0</i>
   <i type="int" name="NOMEGAR">     0</i>
   <i type="int" name="NBANDSGW">    -1</i>
   <i type="int" name="NBANDSO">    -1</i>
   <i type="int" name="NBANDSV">    -1</i>
   <i type="int" name="NELM">   400</i>
   <i type="int" name="NELMHF">     1</i>
   <i type="int" name="DIM">     3</i>
   <i type="int" name="ANTIRES">     0</i>
   <i name="OMEGAMAX">    -30.00000000</i>
   <i name="OMEGAMIN">    -30.00000000</i>
   <i name="OMEGATL">   -200.00000000</i>
   <i type="int" name="OMEGAGRID">   140</i>
   <i name="CSHIFT">     -0.10000000</i>
   <i type="logical" name="SELFENERGY"> F  </i>
   <i type="logical" name="LSPECTRAL"> F  </i>
   <i type="logical" name="LSPECTRALGW"> F  </i>
   <i type="logical" name="LSINGLES"> F  </i>
   <i type="logical" name="LFERMIGW"> F  </i>
   <i type="logical" name="ODDONLYGW"> F  </i>
   <i type="logical" name="EVENONLYGW"> F  </i>
   <i type="int" name="NKREDLFX">     1</i>
   <i type="int" name="NKREDLFY">     1</i>
   <i type="int" name="NKREDLFZ">     1</i>
   <i type="int" name="MAXMEM">  2800</i>
   <i type="int" name="TELESCOPE">     0</i>
   <i type="int" name="TAUPAR">     1</i>
   <i type="int" name="OMEGAPAR">    -1</i>
   <i name="LAMBDA">      1.00000000</i>
  </separator>
  <separator name="External order field" >
   <i name="OFIELD_KAPPA">      0.00000000</i>
   <v name="OFIELD_K">      0.00000000      0.00000000      0.00000000</v>
   <i name="OFIELD_Q6_NEAR">      0.00000000</i>
   <i name="OFIELD_Q6_FAR">      0.00000000</i>
   <i name="OFIELD_A">      0.00000000</i>
  </separator>
 </parameters>
 <atominfo>
  <atoms>      10 </atoms>
  <types>       3 </types>
  <array name="atoms" >
   <dimension dim="1">ion</dimension>
   <field type="string">element</field>
   <field type="int">atomtype</field>
   <set>
    <rc><c>Cr</c><c>   1</c></rc>
    <rc><c>Cr</c><c>   1</c></rc>
    <rc><c>Ge</c><c>   2</c></rc>
    <rc><c>Ge</c><c>   2</c></rc>
    <rc><c>Te</c><c>   3</c></rc>
    <rc><c>Te</c><c>   3</c></rc>
    <rc><c>Te</c><c>   3</c></rc>
    <rc><c>Te</c><c>   3</c></rc>
    <rc><c>Te</c><c>   3</c></rc>
    <rc><c>Te</c><c>   3</c></rc>
   </set>
  </array>
  <array name="atomtypes" >
   <dimension dim="1">type</dimension>
   <field type="int">atomspertype</field>
   <field type="string">element</field>
   <field>mass</field>
   <field>valence</field>
   <field type="string">pseudopotential</field>
   <set>
    <rc><c>   2</c><c>Cr</c><c>     51.99600000</c><c>      6.00000000</c><c> PAW_PBE Cr 06Sep2000                   </c></rc>
    <rc><c>   2</c><c>Ge</c><c>     72.61000000</c><c>      4.00000000</c><c> PAW_PBE Ge 05Jan2001                   </c></rc>
    <rc><c>   6</c><c>Te</c><c>    127.60000000</c><c>      6.00000000</c><c> PAW_PBE Te 08Apr2002                   </c></rc>
   </set>
  </array>
 </atominfo>
 <structure name="initialpos" >
  <crystal>
   <varray name="basis" >
    <v>       6.90777700      -0.00000000       0.00000000 </v>
    <v>       3.45388800       5.98231000       0.00000000 </v>
    <v>       0.00000000       0.00000000      23.44458800 </v>
   </varray>
   <i name="volume">    968.83501932 </i>
   <varray name="rec_basis" >
    <v>       0.14476437      -0.08357974       0.00000000 </v>
    <v>       0.00000000       0.16715951      -0.00000000 </v>
    <v>      -0.00000000       0.00000000       0.04265377 </v>
   </varray>
  </crystal>
  <varray name="positions" >
   <v>       0.33333300       0.33333300       0.49992500 </v>
   <v>       0.66666700       0.66666700       0.50007500 </v>
   <v>       0.00000000       0.00000000       0.44821600 </v>
   <v>       0.00000000       0.00000000       0.55178400 </v>
   <v>       0.62635700       0.00042000       0.57375200 </v>
   <v>       0.00042000       0.37322400       0.57375200 </v>
   <v>       0.37322400       0.62635700       0.57375200 </v>
   <v>       0.37364300       0.99958000       0.42624800 </v>
   <v>       0.99958000       0.62677600       0.42624800 </v>
   <v>       0.62677600       0.37364300       0.42624800 </v>
  </varray>
 </structure>
 <calculation>
  <scstep>
   <time name="dav">   22.84   22.87</time>
   <time name="total">   75.89   75.96</time>
   <energy>
    <i name="alphaZ">     14.98434709 </i>
    <i name="ewald">   5985.89955237 </i>
    <i name="hartreedc">  -7849.09420520 </i>
    <i name="XCdc">   -226.14784124 </i>
    <i name="pawpsdc">   1160.02880991 </i>
    <i name="pawaedc">   -848.52784502 </i>
    <i name="eentropy">      0.00000000 </i>
    <i name="bandstr">     25.03764059 </i>
    <i name="atom">   2114.66635543 </i>
    <i name="e_fr_energy">    376.84681393 </i>
    <i name="e_wo_entrp">    376.84681393 </i>
    <i name="e_0_energy">    376.84681393 </i>
   </energy>
  </scstep>
  <scstep>
   <time name="dav">   27.15   27.69</time>
   <time name="total">   27.16   27.69</time>
   <energy>
    <i name="e_fr_energy">      6.78416919 </i>
    <i name="e_wo_entrp">      6.78416919 </i>
    <i name="e_0_energy">      6.78416919 </i>
   </energy>
  </scstep>
  <scstep>
   <time name="dav">   29.85   30.16</time>
   <time name="total">   29.85   30.17</time>
   <energy>
    <i name="e_fr_energy">    -40.15512655 </i>
    <i name="e_wo_entrp">    -40.15512655 </i>
    <i name="e_0_energy">    -40.15512655 </i>
   </energy>
  </scstep>
  <scstep>
   <time name="dav">   30.32   31.13</time>
   <time name="total">   30.32   31.14</time>
   <energy>
    <i name="e_fr_energy">    -42.43886961 </i>
    <i name="e_wo_entrp">    -42.43886961 </i>
    <i name="e_0_energy">    -42.43886961 </i>
   </energy>
  </scstep>
  <scstep>
   <time name="dav">   32.57   32.79</time>
   <time name="total">   34.52   34.74</time>
   <energy>
    <i name="e_fr_energy">    -42.49499908 </i>
    <i name="e_wo_entrp">    -42.49499908 </i>
    <i name="e_0_energy">    -42.49499908 </i>
   </energy>
  </scstep>
  <scstep>
   <time name="dav">   32.93   32.96</time>
   <time name="total">   86.12   86.63</time>
   <energy>
    <i name="e_fr_energy">    -45.14974447 </i>
    <i name="e_wo_entrp">    -45.14974447 </i>
    <i name="e_0_energy">    -45.14974447 </i>
   </energy>
  </scstep>
  <scstep>
   <time name="dav">   30.13   30.39</time>
   <time name="total">   83.76   84.33</time>
   <energy>
    <i name="e_fr_energy">    -40.58670332 </i>
    <i name="e_wo_entrp">    -40.58670332 </i>
    <i name="e_0_energy">    -40.58670332 </i>
   </energy>
  </scstep>
  <scstep>
   <time name="dav">   31.78   31.87</time>
   <time name="total">   85.18   85.80</time>
   <energy>
    <i name="e_fr_energy">    -40.46545031 </i>
    <i name="e_wo_entrp">    -40.46545031 </i>
    <i name="e_0_energy">    -40.46545031 </i>
   </energy>
  </scstep>
  <scstep>
   <time name="dav">   33.31   33.50</time>
   <time name="total">   87.19   87.51</time>
   <energy>
    <i name="e_fr_energy">    -40.85619108 </i>
    <i name="e_wo_entrp">    -40.85619108 </i>
    <i name="e_0_energy">    -40.85619108 </i>
   </energy>
  </scstep>
  <scstep>
   <time name="dav">   29.93   30.12</time>
   <time name="total">   83.25   84.11</time>
   <energy>
    <i name="e_fr_energy">    -41.25593258 </i>
    <i name="e_wo_entrp">    -41.25593258 </i>
    <i name="e_0_energy">    -41.25593258 </i>
   </energy>
  </scstep>
  <scstep>
   <time name="dav">   32.47   32.69</time>
   <time name="total">   85.99   86.88</time>
   <energy>
    <i name="e_fr_energy">    -41.38386056 </i>
    <i name="e_wo_entrp">    -41.38386056 </i>
    <i name="e_0_energy">    -41.38386056 </i>
   </energy>
  </scstep>
  <scstep>
   <time name="dav">   26.38   26.46</time>
   <time name="total">   79.52   80.38</time>
   <energy>
    <i name="e_fr_energy">    -41.66140332 </i>
    <i name="e_wo_entrp">    -41.66140332 </i>
    <i name="e_0_energy">    -41.66140332 </i>
   </energy>
  </scstep>
  <scstep>
   <time name="dav">   26.93   27.10</time>
   <time name="total">   80.92   81.41</time>
   <energy>
    <i name="e_fr_energy">    -41.75382480 </i>
    <i name="e_wo_entrp">    -41.75382480 </i>
    <i name="e_0_energy">    -41.75382480 </i>
   </energy>
  </scstep>
  <scstep>
   <time name="dav">   25.06   25.21</time>
   <time name="total">   78.07   79.39</time>
   <energy>
    <i name="e_fr_energy">    -41.76592310 </i>
    <i name="e_wo_entrp">    -41.76592310 </i>
    <i name="e_0_energy">    -41.76592310 </i>
   </energy>
  </scstep>
  <scstep>
   <time name="dav">   23.57   23.59</time>
   <time name="total">   77.50   77.64</time>
   <energy>
    <i name="e_fr_energy">    -41.76671761 </i>
    <i name="e_wo_entrp">    -41.76671761 </i>
    <i name="e_0_energy">    -41.76671761 </i>
   </energy>
  </scstep>
  <scstep>
   <time name="dav">   22.89   22.90</time>
   <time name="total">   77.26   77.34</time>
   <energy>
    <i name="e_fr_energy">    -41.76699552 </i>
    <i name="e_wo_entrp">    -41.76699552 </i>
    <i name="e_0_energy">    -41.76699552 </i>
   </energy>
  </scstep>
  <scstep>
   <time name="dav">   23.78   23.87</time>
   <time name="total">   77.81   78.14</time>
   <energy>
    <i name="e_fr_energy">    -41.76715488 </i>
    <i name="e_wo_entrp">    -41.76715488 </i>
    <i name="e_0_energy">    -41.76715488 </i>
   </energy>
  </scstep>
  <scstep>
   <time name="dav">   22.64   23.23</time>
   <time name="total">   74.71   75.40</time>
   <energy>
    <i name="alphaZ">     14.98434709 </i>
    <i name="ewald">   5985.89955237 </i>
    <i name="hartreedc">  -7859.66218142 </i>
    <i name="XCdc">   -226.72156928 </i>
    <i name="pawpsdc">   1240.40607529 </i>
    <i name="pawaedc">   -930.50424819 </i>
    <i name="eentropy">      0.00000000 </i>
    <i name="bandstr">   -380.83543096 </i>
    <i name="atom">   2114.66635543 </i>
    <i name="e_fr_energy">    -41.76709966 </i>
    <i name="e_wo_entrp">    -41.76709966 </i>
    <i name="e_0_energy">    -41.76709966 </i>
   </energy>
  </scstep>
  <structure>
   <crystal>
    <varray name="basis" >
     <v>       6.90777700      -0.00000000       0.00000000 </v>
     <v>       3.45388800       5.98231000       0.00000000 </v>
     <v>       0.00000000       0.00000000      23.44458800 </v>
    </varray>
    <i name="volume">    968.83501932 </i>
    <varray name="rec_basis" >
     <v>       0.14476437      -0.08357974       0.00000000 </v>
     <v>       0.00000000       0.16715951      -0.00000000 </v>
     <v>      -0.00000000       0.00000000       0.04265377 </v>
    </varray>
   </crystal>
   <varray name="positions" >
    <v>       0.33333300       0.33333300       0.49992500 </v>
    <v>       0.66666700       0.66666700       0.50007500 </v>
    <v>       0.00000000       0.00000000       0.44821600 </v>
    <v>       0.00000000       0.00000000       0.55178400 </v>
    <v>       0.62635700       0.00042000       0.57375200 </v>
    <v>       0.00042000       0.37322400       0.57375200 </v>
    <v>       0.37322400       0.62635700       0.57375200 </v>
    <v>       0.37364300       0.99958000       0.42624800 </v>
    <v>       0.99958000       0.62677600       0.42624800 </v>
    <v>       0.62677600       0.37364300       0.42624800 </v>
   </varray>
  </structure>
  <varray name="forces" >
   <v>       0.00000000       0.00000000      -0.00292907 </v>
   <v>       0.00000000       0.00000000       0.00292907 </v>
   <v>       0.00000000       0.00000000       0.02334631 </v>
   <v>       0.00000000       0.00000000      -0.02334631 </v>
   <v>      -0.10155942      -0.00796071       0.02508699 </v>
   <v>       0.04388552       0.09193339       0.02508699 </v>
   <v>       0.05767389      -0.08397268       0.02508699 </v>
   <v>       0.10155942       0.00796071      -0.02508699 </v>
   <v>      -0.04388552      -0.09193339      -0.02508699 </v>
   <v>      -0.05767389       0.08397268      -0.02508699 </v>
  </varray>
  <varray name="stress" >
   <v>       0.83949250      -0.00000090       0.00000000 </v>
   <v>       0.00000076       0.83949240       0.00000000 </v>
   <v>       0.00000000      -0.00000000       0.61529488 </v>
  </varray>
  <energy>
   <i name="e_fr_energy">    -41.76709966 </i>
   <i name="e_wo_entrp">    -41.76709966 </i>
   <i name="e_0_energy">      0.00000000 </i>
  </energy>
  <time name="totalsc"> 1405.32 1415.64</time>
 </calculation>
 <calculation>
  <scstep>
   <time name="dav">   25.67   25.88</time>
   <time name="total">   79.36   79.75</time>
   <energy>
    <i name="alphaZ">     14.88450572 </i>
    <i name="ewald">   5963.52334931 </i>
    <i name="hartreedc">  -7834.03595552 </i>
    <i name="XCdc">   -226.88525123 </i>
    <i name="pawpsdc">   1240.47243041 </i>
    <i name="pawaedc">   -930.57260321 </i>
    <i name="eentropy">      0.00000000 </i>
    <i name="bandstr">   -383.82909275 </i>
    <i name="atom">   2114.66635543 </i>
    <i name="e_fr_energy">    -41.77626184 </i>
    <i name="e_wo_entrp">    -41.77626184 </i>
    <i name="e_0_energy">    -41.77626184 </i>
   </energy>
  </scstep>
  <scstep>
   <time name="dav">   25.94   26.12</time>
   <time name="total">   79.59   80.24</time>
   <energy>
    <i name="e_fr_energy">    -41.77593711 </i>
    <i name="e_wo_entrp">    -41.77593711 </i>
    <i name="e_0_energy">    -41.77593711 </i>
   </energy>
  </scstep>
  <scstep>
   <time name="dav">   30.43   30.46</time>
   <time name="total">   83.97   84.30</time>
   <energy>
    <i name="e_fr_energy">    -41.77078819 </i>
    <i name="e_wo_entrp">    -41.77078819 </i>
    <i name="e_0_energy">    -41.77078819 </i>
   </energy>
  </scstep>
  <scstep>
   <time name="dav">   28.01   28.04</time>
   <time name="total">   81.85   81.99</time>
   <energy>
    <i name="e_fr_energy">    -41.76946624 </i>
    <i name="e_wo_entrp">    -41.76946624 </i>
    <i name="e_0_energy">    -41.76946624 </i>
   </energy>
  </scstep>
  <scstep>
   <time name="dav">   20.68   20.81</time>
   <time name="total">   74.32   74.72</time>
   <energy>
    <i name="e_fr_energy">    -41.76928769 </i>
    <i name="e_wo_entrp">    -41.76928769 </i>
    <i name="e_0_energy">    -41.76928769 </i>
   </energy>
  </scstep>
  <scstep>
   <time name="dav">   18.90   19.18</time>
   <time name="total">   72.74   73.06</time>
   <energy>
    <i name="e_fr_energy">    -41.76911095 </i>
    <i name="e_wo_entrp">    -41.76911095 </i>
    <i name="e_0_energy">    -41.76911095 </i>
   </energy>
  </scstep>
  <scstep>
   <time name="dav">   18.47   18.63</time>
   <time name="total">   72.67   72.96</time>
   <energy>
    <i name="e_fr_energy">    -41.76887596 </i>
    <i name="e_wo_entrp">    -41.76887596 </i>
    <i name="e_0_energy">    -41.76887596 </i>
   </energy>
  </scstep>
  <scstep>
   <time name="dav">   19.31   19.37</time>
   <time name="total">   73.24   73.84</time>
   <energy>
    <i name="e_fr_energy">    -41.76864191 </i>
    <i name="e_wo_entrp">    -41.76864191 </i>
    <i name="e_0_energy">    -41.76864191 </i>
   </energy>
  </scstep>
  <scstep>
   <time name="dav">   20.49   20.79</time>
   <time name="total">   72.42   72.89</time>
   <energy>
    <i name="alphaZ">     14.88450572 </i>
    <i name="ewald">   5963.52334931 </i>
    <i name="hartreedc">  -7838.30692835 </i>
    <i name="XCdc">   -226.83735520 </i>
    <i name="pawpsdc">   1237.13860568 </i>
    <i name="pawaedc">   -927.17333943 </i>
    <i name="eentropy">      0.00000000 </i>
    <i name="bandstr">   -379.66387644 </i>
    <i name="atom">   2114.66635543 </i>
    <i name="e_fr_energy">    -41.76868328 </i>
    <i name="e_wo_entrp">    -41.76868328 </i>
    <i name="e_0_energy">    -41.76868328 </i>
   </energy>
  </scstep>
  <structure>
   <crystal>
    <varray name="basis" >
     <v>       6.92469409      -0.00000002       0.00000000 </v>
     <v>       3.46234656       5.99696061       0.00000000 </v>
     <v>       0.00000000      -0.00000000      23.48667000 </v>
    </varray>
    <i name="volume">    975.33371101 </i>
    <varray name="rec_basis" >
     <v>       0.14441071      -0.08337556      -0.00000000 </v>
     <v>       0.00000000       0.16675114       0.00000000 </v>
     <v>      -0.00000000      -0.00000000       0.04257734 </v>
    </varray>
   </crystal>
   <varray name="positions" >
    <v>       0.33333300       0.33333300       0.49991897 </v>
    <v>       0.66666700       0.66666700       0.50008103 </v>
    <v>       0.00000000       0.00000000       0.44826404 </v>
    <v>       0.00000000       0.00000000       0.55173596 </v>
    <v>       0.62567983       0.00035580       0.57380362 </v>
    <v>       0.00035580       0.37396537       0.57380362 </v>
    <v>       0.37396537       0.62567983       0.57380362 </v>
    <v>       0.37432017       0.99964420       0.42619638 </v>
    <v>       0.99964420       0.62603463       0.42619638 </v>
    <v>       0.62603463       0.37432017       0.42619638 </v>
   </varray>
  </structure>
  <varray name="forces" >
   <v>       0.00000000      -0.00000000       0.00033514 </v>
   <v>       0.00000000      -0.00000000      -0.00033514 </v>
   <v>       0.00000000      -0.00000000      -0.01450945 </v>
   <v>       0.00000000      -0.00000000       0.01450945 </v>
   <v>      -0.03409234      -0.00697318      -0.02111300 </v>
   <v>       0.01100721       0.03301142      -0.02111300 </v>
   <v>       0.02308513      -0.02603824      -0.02111300 </v>
   <v>       0.03409234       0.00697318       0.02111300 </v>
   <v>      -0.01100721      -0.03301142       0.02111300 </v>
   <v>      -0.02308513       0.02603824       0.02111300 </v>
  </varray>
  <varray name="stress" >
   <v>      -0.76907426      -0.00000144       0.00000000 </v>
   <v>       0.00000157      -0.76907416       0.00000000 </v>
   <v>       0.00000000       0.00000000      -0.20102586 </v>
  </varray>
  <energy>
   <i name="e_fr_energy">    -41.76868328 </i>
   <i name="e_wo_entrp">    -41.76868328 </i>
   <i name="e_0_energy">      0.00000000 </i>
  </energy>
  <time name="totalsc">  821.52  827.98</time>
 </calculation>
 <calculation>
  <scstep>
   <time name="dav">   24.11   24.50</time>
   <time name="total">   76.30   78.62</time>
   <energy>
    <i name="alphaZ">     14.91798787 </i>
    <i name="ewald">   5971.03174010 </i>
    <i name="hartreedc">  -7848.46651374 </i>
    <i name="XCdc">   -226.77211249 </i>
    <i name="pawpsdc">   1237.18946116 </i>
    <i name="pawaedc">   -927.23176686 </i>
    <i name="eentropy">      0.00000000 </i>
    <i name="bandstr">   -377.10530822 </i>
    <i name="atom">   2114.66635543 </i>
    <i name="e_fr_energy">    -41.77015675 </i>
    <i name="e_wo_entrp">    -41.77015675 </i>
    <i name="e_0_energy">    -41.77015675 </i>
   </energy>
  </scstep>
  <scstep>
   <time name="dav">   26.66   26.81</time>
   <time name="total">   80.72   81.04</time>
   <energy>
    <i name="e_fr_energy">    -41.77002355 </i>
    <i name="e_wo_entrp">    -41.77002355 </i>
    <i name="e_0_energy">    -41.77002355 </i>
   </energy>
  </scstep>
  <scstep>
   <time name="dav">   26.65   27.14</time>
   <time name="total">   79.68   80.90</time>
   <energy>
    <i name="e_fr_energy">    -41.76952433 </i>
    <i name="e_wo_entrp">    -41.76952433 </i>
    <i name="e_0_energy">    -41.76952433 </i>
   </energy>
  </scstep>
  <scstep>
   <time name="dav">   23.11   23.25</time>
   <time name="total">   76.97   77.45</time>
   <energy>
    <i name="e_fr_energy">    -41.76922642 </i>
    <i name="e_wo_entrp">    -41.76922642 </i>
    <i name="e_0_energy">    -41.76922642 </i>
   </energy>
  </scstep>
  <scstep>
   <time name="dav">   19.80   19.92</time>
   <time name="total">   71.44   71.91</time>
   <energy>
    <i name="alphaZ">     14.91798787 </i>
    <i name="ewald">   5971.03174010 </i>
    <i name="hartreedc">  -7847.79477721 </i>
    <i name="XCdc">   -226.78920120 </i>
    <i name="pawpsdc">   1238.05657807 </i>
    <i name="pawaedc">   -928.10665742 </i>
    <i name="eentropy">      0.00000000 </i>
    <i name="bandstr">   -377.75125372 </i>
    <i name="atom">   2114.66635543 </i>
    <i name="e_fr_energy">    -41.76922809 </i>
    <i name="e_wo_entrp">    -41.76922809 </i>
    <i name="e_0_energy">    -41.76922809 </i>
   </energy>
  </scstep>
  <structure>
   <crystal>
    <varray name="basis" >
     <v>       6.91900398      -0.00000001       0.00000000 </v>
     <v>       3.45950150       5.99203284       0.00000000 </v>
     <v>       0.00000000      -0.00000000      23.47251561 </v>
    </varray>
    <i name="volume">    973.14465780 </i>
    <varray name="rec_basis" >
     <v>       0.14452947      -0.08344412      -0.00000000 </v>
     <v>       0.00000000       0.16688827       0.00000000 </v>
     <v>      -0.00000000      -0.00000000       0.04260302 </v>
    </varray>
   </crystal>
   <varray name="positions" >
    <v>       0.33333300       0.33333300       0.49992100 </v>
    <v>       0.66666700       0.66666700       0.50007900 </v>
    <v>       0.00000000       0.00000000       0.44824791 </v>
    <v>       0.00000000       0.00000000       0.55175209 </v>
    <v>       0.62590704       0.00037734       0.57378629 </v>
    <v>       0.00037734       0.37371662       0.57378629 </v>
    <v>       0.37371662       0.62590704       0.57378629 </v>
    <v>       0.37409296       0.99962266       0.42621371 </v>
    <v>       0.99962266       0.62628338       0.42621371 </v>
    <v>       0.62628338       0.37409296       0.42621371 </v>
   </varray>
  </structure>
  <varray name="forces" >
   <v>      -0.00000000      -0.00000000      -0.00105804 </v>
   <v>      -0.00000000      -0.00000000       0.00105804 </v>
   <v>      -0.00000000      -0.00000000      -0.00122466 </v>
   <v>      -0.00000000      -0.00000000       0.00122466 </v>
   <v>      -0.05755930      -0.00684011      -0.00577013 </v>
   <v>       0.02285593       0.05326787      -0.00577013 </v>
   <v>       0.03470336      -0.04642776      -0.00577013 </v>
   <v>       0.05755930       0.00684011       0.00577013 </v>
   <v>      -0.02285593      -0.05326787       0.00577013 </v>
   <v>      -0.03470336       0.04642776       0.00577013 </v>
  </varray>
  <varray name="stress" >
   <v>      -0.28054867      -0.00000050      -0.00000000 </v>
   <v>       0.00000055      -0.28054864       0.00000000 </v>
   <v>      -0.00000000      -0.00000000      -0.21322291 </v>
  </varray>
  <energy>
   <i name="e_fr_energy">    -41.76922809 </i>
   <i name="e_wo_entrp">    -41.76922809 </i>
   <i name="e_0_energy">      0.00000000 </i>
  </energy>
  <time name="totalsc">  517.13  522.15</time>
  <eigenvalues>
   <array>
    <dimension dim="1">band</dimension>
    <dimension dim="2">kpoint</dimension>
    <dimension dim="3">spin</dimension>
    <field>eigene</field>
    <field>occ</field>
    <set>
     <set comment="spin 1">
      <set comment="kpoint 1">
       <r>  -14.7215    1.0000 </r>
       <r>  -13.7910    1.0000 </r>
       <r>  -12.7462    1.0000 </r>
       <r>  -12.7462    1.0000 </r>
       <r>  -12.6854    1.0000 </r>
       <r>  -12.6854    1.0000 </r>
       <r>  -11.0644    1.0000 </r>
       <r>   -9.0003    1.0000 </r>
       <r>   -6.6736    1.0000 </r>
       <r>   -6.6175    1.0000 </r>
       <r>   -6.6175    1.0000 </r>
       <r>   -6.5024    1.0000 </r>
       <r>   -6.1843    1.0000 </r>
       <r>   -6.1843    1.0000 </r>
       <r>   -5.4076    1.0000 </r>
       <r>   -4.5671    1.0000 </r>
       <r>   -4.5671    1.0000 </r>
       <r>   -4.2639    1.0000 </r>
       <r>   -4.2639    1.0000 </r>
       <r>   -4.1227    1.0000 </r>
       <r>   -3.5789    1.0000 </r>
       <r>   -3.5740    1.0000 </r>
       <r>   -3.5740    1.0000 </r>
       <r>   -3.3113    1.0000 </r>
       <r>   -3.3113    1.0000 </r>
       <r>   -3.3030    1.0000 </r>
       <r>   -3.2294    1.0000 </r>
       <r>   -3.2294    1.0000 </r>
       <r>   -2.9160    1.0000 </r>
       <r>   -2.2752    1.0000 </r>
       <r>   -2.2752    1.0000 </r>
       <r>   -1.2246    0.0000 </r>
       <r>   -1.2246    0.0000 </r>
       <r>   -0.7985    0.0000 </r>
       <r>   -0.5270    0.0000 </r>
       <r>   -0.5270    0.0000 </r>
       <r>   -0.5036    0.0000 </r>
       <r>    1.0347    0.0000 </r>
       <r>    1.0348    0.0000 </r>
       <r>    1.6386    0.0000 </r>
       <r>    1.6941    0.0000 </r>
       <r>    2.0698    0.0000 </r>
       <r>    2.2213    0.0000 </r>
       <r>    2.2224    0.0000 </r>
       <r>    2.2224    0.0000 </r>
       <r>    2.4405    0.0000 </r>
       <r>    3.0826    0.0000 </r>
       <r>    3.0827    0.0000 </r>
      </set>
      <set comment="kpoint 2">
       <r>  -14.6004    1.0000 </r>
       <r>  -13.6970    1.0000 </r>
       <r>  -13.0033    1.0000 </r>
       <r>  -12.8473    1.0000 </r>
       <r>  -12.7858    1.0000 </r>
       <r>  -12.7349    1.0000 </r>
       <r>  -10.8732    1.0000 </r>
       <r>   -9.0363    1.0000 </r>
       <r>   -6.8137    1.0000 </r>
       <r>   -6.6121    1.0000 </r>
       <r>   -6.4285    1.0000 </r>
       <r>   -6.1745    1.0000 </r>
       <r>   -5.8040    1.0000 </r>
       <r>   -5.6576    1.0000 </r>
       <r>   -5.1898    1.0000 </r>
       <r>   -4.7158    1.0000 </r>
       <r>   -4.7015    1.0000 </r>
       <r>   -4.5574    1.0000 </r>
       <r>   -4.1312    1.0000 </r>
       <r>   -4.0342    1.0000 </r>
       <r>   -3.9056    1.0000 </r>
       <r>   -3.9012    1.0000 </r>
       <r>   -3.4685    1.0000 </r>
       <r>   -3.4618    1.0000 </r>
       <r>   -3.3933    1.0000 </r>
       <r>   -3.3001    1.0000 </r>
       <r>   -3.1832    1.0000 </r>
       <r>   -3.1583    1.0000 </r>
       <r>   -3.0992    1.0000 </r>
       <r>   -2.7244    1.0000 </r>
       <r>   -2.5098    1.0000 </r>
       <r>   -1.5024    0.0000 </r>
       <r>   -1.1502    0.0000 </r>
       <r>   -1.0740    0.0000 </r>
       <r>   -0.7875    0.0000 </r>
       <r>   -0.1047    0.0000 </r>
       <r>   -0.0352    0.0000 </r>
       <r>    1.0287    0.0000 </r>
       <r>    1.0477    0.0000 </r>
       <r>    1.7807    0.0000 </r>
       <r>    1.8465    0.0000 </r>
       <r>    1.8692    0.0000 </r>
       <r>    2.1365    0.0000 </r>
       <r>    2.3033    0.0000 </r>
       <r>    2.3386    0.0000 </r>
       <r>    2.6094    0.0000 </r>
       <r>    2.9398    0.0000 </r>
       <r>    3.1062    0.0000 </r>
      </set>
      <set comment="kpoint 3">
       <r>  -14.2872    1.0000 </r>
       <r>  -13.5264    1.0000 </r>
       <r>  -13.4605    1.0000 </r>
       <r>  -13.0104    1.0000 </r>
       <r>  -12.9082    1.0000 </r>
       <r>  -12.8950    1.0000 </r>
       <r>  -10.6151    1.0000 </r>
       <r>   -9.0490    1.0000 </r>
       <r>   -6.6578    1.0000 </r>
       <r>   -6.4445    1.0000 </r>
       <r>   -6.0063    1.0000 </r>
       <r>   -5.5732    1.0000 </r>
       <r>   -5.2154    1.0000 </r>
       <r>   -5.1633    1.0000 </r>
       <r>   -5.1572    1.0000 </r>
       <r>   -5.0287    1.0000 </r>
       <r>   -4.8126    1.0000 </r>
       <r>   -4.7953    1.0000 </r>
       <r>   -4.4177    1.0000 </r>
       <r>   -4.3481    1.0000 </r>
       <r>   -4.2883    1.0000 </r>
       <r>   -3.7962    1.0000 </r>
       <r>   -3.6377    1.0000 </r>
       <r>   -3.6291    1.0000 </r>
       <r>   -3.4213    1.0000 </r>
       <r>   -3.3424    1.0000 </r>
       <r>   -3.3412    1.0000 </r>
       <r>   -3.0388    1.0000 </r>
       <r>   -2.9829    1.0000 </r>
       <r>   -2.9150    1.0000 </r>
       <r>   -2.8661    1.0000 </r>
       <r>   -1.5016    0.0000 </r>
       <r>   -1.3404    0.0000 </r>
       <r>   -1.1298    0.0000 </r>
       <r>   -0.9728    0.0000 </r>
       <r>   -0.5100    0.0000 </r>
       <r>   -0.2182    0.0000 </r>
       <r>    0.8767    0.0000 </r>
       <r>    1.4363    0.0000 </r>
       <r>    1.6213    0.0000 </r>
       <r>    1.7769    0.0000 </r>
       <r>    1.9882    0.0000 </r>
       <r>    1.9905    0.0000 </r>
       <r>    2.3824    0.0000 </r>
       <r>    2.6559    0.0000 </r>
       <r>    2.8936    0.0000 </r>
       <r>    3.0577    0.0000 </r>
       <r>    3.1266    0.0000 </r>
      </set>
      <set comment="kpoint 4">
       <r>  -14.3776    1.0000 </r>
       <r>  -13.5289    1.0000 </r>
       <r>  -13.2848    1.0000 </r>
       <r>  -13.1229    1.0000 </r>
       <r>  -12.9050    1.0000 </r>
       <r>  -12.8057    1.0000 </r>
       <r>  -10.6387    1.0000 </r>
       <r>   -9.0325    1.0000 </r>
       <r>   -6.8333    1.0000 </r>
       <r>   -6.3507    1.0000 </r>
       <r>   -6.2079    1.0000 </r>
       <r>   -5.7811    1.0000 </r>
       <r>   -5.2123    1.0000 </r>
       <r>   -5.1418    1.0000 </r>
       <r>   -5.0613    1.0000 </r>
       <r>   -4.9800    1.0000 </r>
       <r>   -4.9113    1.0000 </r>
       <r>   -4.6860    1.0000 </r>
       <r>   -4.5880    1.0000 </r>
       <r>   -4.2674    1.0000 </r>
       <r>   -4.2427    1.0000 </r>
       <r>   -3.7421    1.0000 </r>
       <r>   -3.5429    1.0000 </r>
       <r>   -3.5202    1.0000 </r>
       <r>   -3.4147    1.0000 </r>
       <r>   -3.3248    1.0000 </r>
       <r>   -3.2671    1.0000 </r>
       <r>   -3.1538    1.0000 </r>
       <r>   -3.0015    1.0000 </r>
       <r>   -2.8437    1.0000 </r>
       <r>   -2.7455    1.0000 </r>
       <r>   -1.7483    0.0000 </r>
       <r>   -1.1050    0.0000 </r>
       <r>   -1.0830    0.0000 </r>
       <r>   -0.7851    0.0000 </r>
       <r>   -0.5140    0.0000 </r>
       <r>   -0.1961    0.0000 </r>
       <r>    0.9133    0.0000 </r>
       <r>    0.9289    0.0000 </r>
       <r>    1.6158    0.0000 </r>
       <r>    1.7007    0.0000 </r>
       <r>    1.9328    0.0000 </r>
       <r>    2.2575    0.0000 </r>
       <r>    2.2795    0.0000 </r>
       <r>    2.5840    0.0000 </r>
       <r>    2.9338    0.0000 </r>
       <r>    3.0031    0.0000 </r>
       <r>    3.1422    0.0000 </r>
      </set>
      <set comment="kpoint 5">
       <r>  -14.1264    1.0000 </r>
       <r>  -13.5911    1.0000 </r>
       <r>  -13.3477    1.0000 </r>
       <r>  -13.2458    1.0000 </r>
       <r>  -13.0401    1.0000 </r>
       <r>  -12.8876    1.0000 </r>
       <r>  -10.4911    1.0000 </r>
       <r>   -9.0019    1.0000 </r>
       <r>   -6.6107    1.0000 </r>
       <r>   -6.1450    1.0000 </r>
       <r>   -6.1153    1.0000 </r>
       <r>   -5.7059    1.0000 </r>
       <r>   -5.4763    1.0000 </r>
       <r>   -5.2920    1.0000 </r>
       <r>   -5.0652    1.0000 </r>
       <r>   -4.6886    1.0000 </r>
       <r>   -4.6581    1.0000 </r>
       <r>   -4.6249    1.0000 </r>
       <r>   -4.6156    1.0000 </r>
       <r>   -4.4655    1.0000 </r>
       <r>   -4.2351    1.0000 </r>
       <r>   -3.9341    1.0000 </r>
       <r>   -3.6031    1.0000 </r>
       <r>   -3.4751    1.0000 </r>
       <r>   -3.4408    1.0000 </r>
       <r>   -3.2406    1.0000 </r>
       <r>   -3.1992    1.0000 </r>
       <r>   -3.0712    1.0000 </r>
       <r>   -3.0298    1.0000 </r>
       <r>   -2.9662    1.0000 </r>
       <r>   -2.8802    1.0000 </r>
       <r>   -1.4182    0.0000 </r>
       <r>   -1.3462    0.0000 </r>
       <r>   -1.2871    0.0000 </r>
       <r>   -0.9519    0.0000 </r>
       <r>   -0.7521    0.0000 </r>
       <r>   -0.2665    0.0000 </r>
       <r>    0.5038    0.0000 </r>
       <r>    0.8449    0.0000 </r>
       <r>    1.3718    0.0000 </r>
       <r>    1.5134    0.0000 </r>
       <r>    1.6678    0.0000 </r>
       <r>    2.4965    0.0000 </r>
       <r>    2.7593    0.0000 </r>
       <r>    2.7852    0.0000 </r>
       <r>    2.9269    0.0000 </r>
       <r>    2.9727    0.0000 </r>
       <r>    3.5603    0.0000 </r>
      </set>
     </set>
     <set comment="spin 2">
      <set comment="kpoint 1">
       <r>  -14.7292    1.0000 </r>
       <r>  -13.8476    1.0000 </r>
       <r>  -12.8174    1.0000 </r>
       <r>  -12.8174    1.0000 </r>
       <r>  -12.7554    1.0000 </r>
       <r>  -12.7554    1.0000 </r>
       <r>  -11.0132    1.0000 </r>
       <r>   -8.9551    1.0000 </r>
       <r>   -6.5033    1.0000 </r>
       <r>   -6.5033    1.0000 </r>
       <r>   -6.3718    1.0000 </r>
       <r>   -6.3074    1.0000 </r>
       <r>   -6.0820    1.0000 </r>
       <r>   -6.0819    1.0000 </r>
       <r>   -5.3742    1.0000 </r>
       <r>   -3.9983    1.0000 </r>
       <r>   -3.9983    1.0000 </r>
       <r>   -3.7139    1.0000 </r>
       <r>   -3.7139    1.0000 </r>
       <r>   -3.6247    1.0000 </r>
       <r>   -3.6054    1.0000 </r>
       <r>   -3.2382    1.0000 </r>
       <r>   -3.2382    1.0000 </r>
       <r>   -2.2856    1.0000 </r>
       <r>   -2.2856    1.0000 </r>
       <r>   -0.9991    0.0000 </r>
       <r>   -0.7935    0.0000 </r>
       <r>   -0.7268    0.0000 </r>
       <r>   -0.7268    0.0000 </r>
       <r>   -0.5110    0.0000 </r>
       <r>   -0.5110    0.0000 </r>
       <r>   -0.4462    0.0000 </r>
       <r>   -0.1088    0.0000 </r>
       <r>    0.0249    0.0000 </r>
       <r>    0.0249    0.0000 </r>
       <r>    0.5615    0.0000 </r>
       <r>    0.5615    0.0000 </r>
       <r>    1.1471    0.0000 </r>
       <r>    1.1471    0.0000 </r>
       <r>    1.8467    0.0000 </r>
       <r>    2.1222    0.0000 </r>
       <r>    2.2414    0.0000 </r>
       <r>    2.2802    0.0000 </r>
       <r>    2.3021    0.0000 </r>
       <r>    2.3021    0.0000 </r>
       <r>    2.4733    0.0000 </r>
       <r>    3.4089    0.0000 </r>
       <r>    3.4184    0.0000 </r>
      </set>
      <set comment="kpoint 2">
       <r>  -14.6106    1.0000 </r>
       <r>  -13.7533    1.0000 </r>
       <r>  -13.0584    1.0000 </r>
       <r>  -12.9179    1.0000 </r>
       <r>  -12.8476    1.0000 </r>
       <r>  -12.8049    1.0000 </r>
       <r>  -10.8397    1.0000 </r>
       <r>   -8.9898    1.0000 </r>
       <r>   -6.5994    1.0000 </r>
       <r>   -6.5305    1.0000 </r>
       <r>   -6.2519    1.0000 </r>
       <r>   -6.0362    1.0000 </r>
       <r>   -5.6760    1.0000 </r>
       <r>   -5.4543    1.0000 </r>
       <r>   -5.0065    1.0000 </r>
       <r>   -4.3725    1.0000 </r>
       <r>   -4.1398    1.0000 </r>
       <r>   -4.0239    1.0000 </r>
       <r>   -3.9423    1.0000 </r>
       <r>   -3.5870    1.0000 </r>
       <r>   -3.5012    1.0000 </r>
       <r>   -3.4068    1.0000 </r>
       <r>   -3.3929    1.0000 </r>
       <r>   -3.0130    1.0000 </r>
       <r>   -2.6280    1.0000 </r>
       <r>   -1.0039    0.0000 </r>
       <r>   -0.8794    0.0000 </r>
       <r>   -0.7294    0.0000 </r>
       <r>   -0.6230    0.0000 </r>
       <r>   -0.5138    0.0000 </r>
       <r>   -0.4917    0.0000 </r>
       <r>   -0.4149    0.0000 </r>
       <r>    0.1458    0.0000 </r>
       <r>    0.1555    0.0000 </r>
       <r>    0.1992    0.0000 </r>
       <r>    0.3576    0.0000 </r>
       <r>    0.4593    0.0000 </r>
       <r>    1.0838    0.0000 </r>
       <r>    1.2329    0.0000 </r>
       <r>    1.9530    0.0000 </r>
       <r>    1.9860    0.0000 </r>
       <r>    2.2550    0.0000 </r>
       <r>    2.2613    0.0000 </r>
       <r>    2.4199    0.0000 </r>
       <r>    2.5237    0.0000 </r>
       <r>    2.6469    0.0000 </r>
       <r>    3.2322    0.0000 </r>
       <r>    3.4298    0.0000 </r>
      </set>
      <set comment="kpoint 3">
       <r>  -14.3047    1.0000 </r>
       <r>  -13.5591    1.0000 </r>
       <r>  -13.5143    1.0000 </r>
       <r>  -13.0802    1.0000 </r>
       <r>  -12.9796    1.0000 </r>
       <r>  -12.9487    1.0000 </r>
       <r>  -10.5985    1.0000 </r>
       <r>   -8.9994    1.0000 </r>
       <r>   -6.4689    1.0000 </r>
       <r>   -6.3641    1.0000 </r>
       <r>   -5.7952    1.0000 </r>
       <r>   -5.4761    1.0000 </r>
       <r>   -5.0645    1.0000 </r>
       <r>   -4.9400    1.0000 </r>
       <r>   -4.8610    1.0000 </r>
       <r>   -4.7457    1.0000 </r>
       <r>   -4.3889    1.0000 </r>
       <r>   -4.3678    1.0000 </r>
       <r>   -4.1565    1.0000 </r>
       <r>   -4.0291    1.0000 </r>
       <r>   -3.7492    1.0000 </r>
       <r>   -3.5429    1.0000 </r>
       <r>   -3.3008    1.0000 </r>
       <r>   -3.2287    1.0000 </r>
       <r>   -3.0545    1.0000 </r>
       <r>   -1.6669    0.0000 </r>
       <r>   -1.0243    0.0000 </r>
       <r>   -0.7231    0.0000 </r>
       <r>   -0.6602    0.0000 </r>
       <r>   -0.5296    0.0000 </r>
       <r>   -0.4567    0.0000 </r>
       <r>   -0.3908    0.0000 </r>
       <r>   -0.1681    0.0000 </r>
       <r>    0.0783    0.0000 </r>
       <r>    0.3013    0.0000 </r>
       <r>    0.3320    0.0000 </r>
       <r>    0.6098    0.0000 </r>
       <r>    0.9410    0.0000 </r>
       <r>    1.6521    0.0000 </r>
       <r>    1.7599    0.0000 </r>
       <r>    2.0291    0.0000 </r>
       <r>    2.1492    0.0000 </r>
       <r>    2.3801    0.0000 </r>
       <r>    2.5230    0.0000 </r>
       <r>    2.7385    0.0000 </r>
       <r>    3.0906    0.0000 </r>
       <r>    3.1196    0.0000 </r>
       <r>    3.1940    0.0000 </r>
      </set>
      <set comment="kpoint 4">
       <r>  -14.3927    1.0000 </r>
       <r>  -13.5840    1.0000 </r>
       <r>  -13.3265    1.0000 </r>
       <r>  -13.1755    1.0000 </r>
       <r>  -12.9721    1.0000 </r>
       <r>  -12.8757    1.0000 </r>
       <r>  -10.6226    1.0000 </r>
       <r>   -8.9823    1.0000 </r>
       <r>   -6.6619    1.0000 </r>
       <r>   -6.2691    1.0000 </r>
       <r>   -6.0292    1.0000 </r>
       <r>   -5.6435    1.0000 </r>
       <r>   -5.0316    1.0000 </r>
       <r>   -4.8249    1.0000 </r>
       <r>   -4.8205    1.0000 </r>
       <r>   -4.6018    1.0000 </r>
       <r>   -4.5713    1.0000 </r>
       <r>   -4.3974    1.0000 </r>
       <r>   -4.3529    1.0000 </r>
       <r>   -3.9152    1.0000 </r>
       <r>   -3.6290    1.0000 </r>
       <r>   -3.4110    1.0000 </r>
       <r>   -3.3417    1.0000 </r>
       <r>   -3.0063    1.0000 </r>
       <r>   -2.9389    1.0000 </r>
       <r>   -1.5341    0.0000 </r>
       <r>   -1.0427    0.0000 </r>
       <r>   -0.9013    0.0000 </r>
       <r>   -0.7155    0.0000 </r>
       <r>   -0.4560    0.0000 </r>
       <r>   -0.3842    0.0000 </r>
       <r>   -0.3603    0.0000 </r>
       <r>   -0.0430    0.0000 </r>
       <r>    0.1887    0.0000 </r>
       <r>    0.2035    0.0000 </r>
       <r>    0.2941    0.0000 </r>
       <r>    0.5719    0.0000 </r>
       <r>    1.0841    0.0000 </r>
       <r>    1.1062    0.0000 </r>
       <r>    1.8459    0.0000 </r>
       <r>    1.9291    0.0000 </r>
       <r>    2.1273    0.0000 </r>
       <r>    2.3924    0.0000 </r>
       <r>    2.6579    0.0000 </r>
       <r>    2.6836    0.0000 </r>
       <r>    2.9727    0.0000 </r>
       <r>    3.2465    0.0000 </r>
       <r>    3.3763    0.0000 </r>
      </set>
      <set comment="kpoint 5">
       <r>  -14.1484    1.0000 </r>
       <r>  -13.6217    1.0000 </r>
       <r>  -13.3976    1.0000 </r>
       <r>  -13.2917    1.0000 </r>
       <r>  -13.1123    1.0000 </r>
       <r>  -12.9570    1.0000 </r>
       <r>  -10.4848    1.0000 </r>
       <r>   -8.9483    1.0000 </r>
       <r>   -6.4432    1.0000 </r>
       <r>   -6.0524    1.0000 </r>
       <r>   -5.9353    1.0000 </r>
       <r>   -5.5615    1.0000 </r>
       <r>   -5.3705    1.0000 </r>
       <r>   -5.0685    1.0000 </r>
       <r>   -4.7004    1.0000 </r>
       <r>   -4.5270    1.0000 </r>
       <r>   -4.3381    1.0000 </r>
       <r>   -4.2565    1.0000 </r>
       <r>   -4.0664    1.0000 </r>
       <r>   -3.9665    1.0000 </r>
       <r>   -3.7184    1.0000 </r>
       <r>   -3.3886    1.0000 </r>
       <r>   -3.2454    1.0000 </r>
       <r>   -3.2400    1.0000 </r>
       <r>   -3.1540    1.0000 </r>
       <r>   -1.8634    0.0000 </r>
       <r>   -1.3225    0.0000 </r>
       <r>   -0.9517    0.0000 </r>
       <r>   -0.9350    0.0000 </r>
       <r>   -0.4547    0.0000 </r>
       <r>   -0.3877    0.0000 </r>
       <r>   -0.3828    0.0000 </r>
       <r>   -0.0163    0.0000 </r>
       <r>   -0.0149    0.0000 </r>
       <r>    0.3063    0.0000 </r>
       <r>    0.3829    0.0000 </r>
       <r>    0.6370    0.0000 </r>
       <r>    0.7257    0.0000 </r>
       <r>    1.1432    0.0000 </r>
       <r>    1.6757    0.0000 </r>
       <r>    1.8126    0.0000 </r>
       <r>    1.8867    0.0000 </r>
       <r>    2.8100    0.0000 </r>
       <r>    2.8556    0.0000 </r>
       <r>    2.9023    0.0000 </r>
       <r>    3.0359    0.0000 </r>
       <r>    3.1453    0.0000 </r>
       <r>    3.6104    0.0000 </r>
      </set>
     </set>
    </set>
   </array>
  </eigenvalues>
  <separator name="orbital magnetization" >
   <v name="MAGDIPOLOUT">      0.00000000      0.00000000      0.00000000</v>
  </separator>
  <dos>
   <i name="efermi">     -2.24760066 </i>
   <total>
    <array>
     <dimension dim="1">gridpoints</dimension>
     <dimension dim="2">spin</dimension>
     <field>energy</field>
     <field>total</field>
     <field>integrated</field>
     <set>
      <set comment="spin 1">
       <r>   -15.6462     0.0000     0.0000 </r>
       <r>   -15.5790     0.0000     0.0000 </r>
       <r>   -15.5117     0.0000     0.0000 </r>
       <r>   -15.4445     0.0000     0.0000 </r>
       <r>   -15.3772     0.0000     0.0000 </r>
       <r>   -15.3100     0.0000     0.0000 </r>
       <r>   -15.2427     0.0000     0.0000 </r>
       <r>   -15.1755     0.0000     0.0000 </r>
       <r>   -15.1082     0.0000     0.0000 </r>
       <r>   -15.0410     0.0000     0.0000 </r>
       <r>   -14.9738     0.0000     0.0000 </r>
       <r>   -14.9065     0.0000     0.0000 </r>
       <r>   -14.8393     0.0000     0.0000 </r>
       <r>   -14.7720     0.0000     0.0000 </r>
       <r>   -14.7048     0.2735     0.0023 </r>
       <r>   -14.6375     1.3751     0.0577 </r>
       <r>   -14.5703     1.1388     0.1534 </r>
       <r>   -14.5030     1.2761     0.2346 </r>
       <r>   -14.4358     1.4135     0.3250 </r>
       <r>   -14.3685     1.6047     0.4249 </r>
       <r>   -14.3013     2.1414     0.5509 </r>
       <r>   -14.2341     2.8246     0.7565 </r>
       <r>   -14.1668     1.6573     0.9072 </r>
       <r>   -14.0996     0.0000     1.0000 </r>
       <r>   -14.0323     0.0000     1.0000 </r>
       <r>   -13.9651     0.0000     1.0000 </r>
       <r>   -13.8978     0.0000     1.0000 </r>
       <r>   -13.8306     0.0000     1.0000 </r>
       <r>   -13.7633     0.7516     1.0104 </r>
       <r>   -13.6961     1.4352     1.1213 </r>
       <r>   -13.6288     1.9894     1.2364 </r>
       <r>   -13.5616     9.7788     1.5923 </r>
       <r>   -13.4944     0.0000     2.0000 </r>
       <r>   -13.4271     2.5055     2.0774 </r>
       <r>   -13.3599     3.2684     2.2715 </r>
       <r>   -13.2926     1.8150     2.6011 </r>
       <r>   -13.2254     3.0636     2.7543 </r>
       <r>   -13.1581     3.3549     2.9701 </r>
       <r>   -13.0909     3.6405     3.2054 </r>
       <r>   -13.0236     6.1501     3.5326 </r>
       <r>   -12.9564     6.5392     3.9454 </r>
       <r>   -12.8892    16.4652     4.5145 </r>
       <r>   -12.8219     8.7367     5.3156 </r>
       <r>   -12.7547     5.1581     5.7560 </r>
       <r>   -12.6874     0.2475     5.9997 </r>
       <r>   -12.6202     0.0000     6.0000 </r>
       <r>   -12.5529     0.0000     6.0000 </r>
       <r>   -12.4857     0.0000     6.0000 </r>
       <r>   -12.4184     0.0000     6.0000 </r>
       <r>   -12.3512     0.0000     6.0000 </r>
       <r>   -12.2839     0.0000     6.0000 </r>
       <r>   -12.2167     0.0000     6.0000 </r>
       <r>   -12.1495     0.0000     6.0000 </r>
       <r>   -12.0822     0.0000     6.0000 </r>
       <r>   -12.0150     0.0000     6.0000 </r>
       <r>   -11.9477     0.0000     6.0000 </r>
       <r>   -11.8805     0.0000     6.0000 </r>
       <r>   -11.8132     0.0000     6.0000 </r>
       <r>   -11.7460     0.0000     6.0000 </r>
       <r>   -11.6787     0.0000     6.0000 </r>
       <r>   -11.6115     0.0000     6.0000 </r>
       <r>   -11.5442     0.0000     6.0000 </r>
       <r>   -11.4770     0.0000     6.0000 </r>
       <r>   -11.4098     0.0000     6.0000 </r>
       <r>   -11.3425     0.0000     6.0000 </r>
       <r>   -11.2753     0.0000     6.0000 </r>
       <r>   -11.2080     0.0000     6.0000 </r>
       <r>   -11.1408     0.0000     6.0000 </r>
       <r>   -11.0735     0.0000     6.0000 </r>
       <r>   -11.0063     0.3815     6.0111 </r>
       <r>   -10.9390     0.8232     6.0516 </r>
       <r>   -10.8718     1.0286     6.1215 </r>
       <r>   -10.8046     1.2683     6.1987 </r>
       <r>   -10.7373     1.5081     6.2920 </r>
       <r>   -10.6701     1.7478     6.4015 </r>
       <r>   -10.6028     5.0683     6.5860 </r>
       <r>   -10.5356     2.9964     6.8572 </r>
       <r>   -10.4683     0.0000     7.0000 </r>
       <r>   -10.4011     0.0000     7.0000 </r>
       <r>   -10.3338     0.0000     7.0000 </r>
       <r>   -10.2666     0.0000     7.0000 </r>
       <r>   -10.1993     0.0000     7.0000 </r>
       <r>   -10.1321     0.0000     7.0000 </r>
       <r>   -10.0649     0.0000     7.0000 </r>
       <r>    -9.9976     0.0000     7.0000 </r>
       <r>    -9.9304     0.0000     7.0000 </r>
       <r>    -9.8631     0.0000     7.0000 </r>
       <r>    -9.7959     0.0000     7.0000 </r>
       <r>    -9.7286     0.0000     7.0000 </r>
       <r>    -9.6614     0.0000     7.0000 </r>
       <r>    -9.5941     0.0000     7.0000 </r>
       <r>    -9.5269     0.0000     7.0000 </r>
       <r>    -9.4596     0.0000     7.0000 </r>
       <r>    -9.3924     0.0000     7.0000 </r>
       <r>    -9.3252     0.0000     7.0000 </r>
       <r>    -9.2579     0.0000     7.0000 </r>
       <r>    -9.1907     0.0000     7.0000 </r>
       <r>    -9.1234     0.0000     7.0000 </r>
       <r>    -9.0562     0.0000     7.0000 </r>
       <r>    -8.9889     0.0000     8.0000 </r>
       <r>    -8.9217     0.0000     8.0000 </r>
       <r>    -8.8544     0.0000     8.0000 </r>
       <r>    -8.7872     0.0000     8.0000 </r>
       <r>    -8.7199     0.0000     8.0000 </r>
       <r>    -8.6527     0.0000     8.0000 </r>
       <r>    -8.5855     0.0000     8.0000 </r>
       <r>    -8.5182     0.0000     8.0000 </r>
       <r>    -8.4510     0.0000     8.0000 </r>
       <r>    -8.3837     0.0000     8.0000 </r>
       <r>    -8.3165     0.0000     8.0000 </r>
       <r>    -8.2492     0.0000     8.0000 </r>
       <r>    -8.1820     0.0000     8.0000 </r>
       <r>    -8.1147     0.0000     8.0000 </r>
       <r>    -8.0475     0.0000     8.0000 </r>
       <r>    -7.9803     0.0000     8.0000 </r>
       <r>    -7.9130     0.0000     8.0000 </r>
       <r>    -7.8458     0.0000     8.0000 </r>
       <r>    -7.7785     0.0000     8.0000 </r>
       <r>    -7.7113     0.0000     8.0000 </r>
       <r>    -7.6440     0.0000     8.0000 </r>
       <r>    -7.5768     0.0000     8.0000 </r>
       <r>    -7.5095     0.0000     8.0000 </r>
       <r>    -7.4423     0.0000     8.0000 </r>
       <r>    -7.3750     0.0000     8.0000 </r>
       <r>    -7.3078     0.0000     8.0000 </r>
       <r>    -7.2406     0.0000     8.0000 </r>
       <r>    -7.1733     0.0000     8.0000 </r>
       <r>    -7.1061     0.0000     8.0000 </r>
       <r>    -7.0388     0.0000     8.0000 </r>
       <r>    -6.9716     0.0000     8.0000 </r>
       <r>    -6.9043     0.0000     8.0000 </r>
       <r>    -6.8371     0.0000     8.0000 </r>
       <r>    -6.7698     4.2287     8.3478 </r>
       <r>    -6.7026     3.3795     8.6036 </r>
       <r>    -6.6353     4.7512     8.8881 </r>
       <r>    -6.5681     1.5776     9.1758 </r>
       <r>    -6.5009     2.5331     9.3139 </r>
       <r>    -6.4336     4.2605     9.5291 </r>
       <r>    -6.3664     3.6941     9.7924 </r>
       <r>    -6.2991     3.4760    10.0320 </r>
       <r>    -6.2319     3.3187    10.2604 </r>
       <r>    -6.1646     5.1411    10.5222 </r>
       <r>    -6.0974     3.7320    10.9472 </r>
       <r>    -6.0301     3.4443    11.1885 </r>
       <r>    -5.9629     1.2702    11.3217 </r>
       <r>    -5.8957     1.4721    11.4139 </r>
       <r>    -5.8284     1.6740    11.5197 </r>
       <r>    -5.7612     2.9827    11.6422 </r>
       <r>    -5.6939     3.6333    11.9991 </r>
       <r>    -5.6267     3.2395    12.2301 </r>
       <r>    -5.5594     1.1367    12.4103 </r>
       <r>    -5.4922     1.2492    12.4905 </r>
       <r>    -5.4249     2.6332    12.6743 </r>
       <r>    -5.3577     3.4725    12.8774 </r>
       <r>    -5.2904     6.0422    13.1846 </r>
       <r>    -5.2232     8.8967    13.6869 </r>
       <r>    -5.1560    10.5884    14.2230 </r>
       <r>    -5.0887     5.8597    14.6995 </r>
       <r>    -5.0215     1.1300    15.0067 </r>
       <r>    -4.9542     3.3828    15.1931 </r>
       <r>    -4.8870     4.2046    15.4213 </r>
       <r>    -4.8197     7.2356    15.8059 </r>
       <r>    -4.7525     9.6456    16.4270 </r>
       <r>    -4.6852     9.6529    17.1317 </r>
       <r>    -4.6180     3.1667    17.7334 </r>
       <r>    -4.5507     3.3642    18.1773 </r>
       <r>    -4.4835     3.1235    18.3955 </r>
       <r>    -4.4163     4.4516    18.7341 </r>
       <r>    -4.3490     6.2410    19.0936 </r>
       <r>    -4.2818     8.1534    19.3622 </r>
       <r>    -4.2145     4.0332    20.0869 </r>
       <r>    -4.1473     4.5287    20.3748 </r>
       <r>    -4.0800     3.4273    20.5898 </r>
       <r>    -4.0128     0.8845    20.7944 </r>
       <r>    -3.9455     0.7763    20.8502 </r>
       <r>    -3.8783     5.9072    21.1027 </r>
       <r>    -3.8111     8.5284    21.5880 </r>
       <r>    -3.7438     0.9582    21.9369 </r>
       <r>    -3.6766     0.4495    21.9775 </r>
       <r>    -3.6093     8.8437    22.2243 </r>
       <r>    -3.5421     8.9945    22.9735 </r>
       <r>    -3.4748     9.1643    23.7943 </r>
       <r>    -3.4076    16.2075    24.6424 </r>
       <r>    -3.3403     7.2884    24.9887 </r>
       <r>    -3.2731    11.1018    26.1318 </r>
       <r>    -3.2058    10.2658    26.7951 </r>
       <r>    -3.1386     4.7881    27.3161 </r>
       <r>    -3.0714    12.2386    27.8612 </r>
       <r>    -3.0041    17.5786    28.7170 </r>
       <r>    -2.9369     6.5681    29.1614 </r>
       <r>    -2.8696    20.5416    29.6726 </r>
       <r>    -2.8024     5.4874    30.1837 </r>
       <r>    -2.7351     3.3909    30.4733 </r>
       <r>    -2.6679     1.7059    30.6099 </r>
       <r>    -2.6006     1.5322    30.7188 </r>
       <r>    -2.5334     1.3584    30.8159 </r>
       <r>    -2.4661     1.0597    30.8988 </r>
       <r>    -2.3989     0.6866    30.9575 </r>
       <r>    -2.3317     0.3135    30.9911 </r>
       <r>    -2.2644     0.0000    31.0000 </r>
       <r>    -2.1972     0.0000    31.0000 </r>
       <r>    -2.1299     0.0000    31.0000 </r>
       <r>    -2.0627     0.0000    31.0000 </r>
       <r>    -1.9954     0.0000    31.0000 </r>
       <r>    -1.9282     0.0000    31.0000 </r>
       <r>    -1.8609     0.0000    31.0000 </r>
       <r>    -1.7937     0.0000    31.0000 </r>
       <r>    -1.7265     0.4361    31.0048 </r>
       <r>    -1.6592     1.7799    31.0793 </r>
       <r>    -1.5920     3.1237    31.2441 </r>
       <r>    -1.5247     4.4674    31.4994 </r>
       <r>    -1.4575     3.4050    31.8088 </r>
       <r>    -1.3902     0.5150    31.9574 </r>
       <r>    -1.3230     3.2348    32.2078 </r>
       <r>    -1.2557     4.6687    32.5002 </r>
       <r>    -1.1885     7.2840    32.8759 </r>
       <r>    -1.1212     6.5582    33.4627 </r>
       <r>    -1.0540     0.8080    33.8968 </r>
       <r>    -0.9868     0.5954    33.9440 </r>
       <r>    -0.9195     4.3392    34.2999 </r>
       <r>    -0.8523     3.4435    34.5616 </r>
       <r>    -0.7850     0.9125    34.8823 </r>
       <r>    -0.7178     1.9640    35.0151 </r>
       <r>    -0.6505     2.2770    35.1577 </r>
       <r>    -0.5833     2.5901    35.3213 </r>
       <r>    -0.5160     2.9567    35.5063 </r>
       <r>    -0.4488     1.2540    35.5975 </r>
       <r>    -0.3815     1.3198    35.6841 </r>
       <r>    -0.3143     1.3857    35.7750 </r>
       <r>    -0.2471     8.6699    36.0136 </r>
       <r>    -0.1798     4.0252    36.5611 </r>
       <r>    -0.1126     3.6183    36.8181 </r>
       <r>    -0.0453     2.0637    36.9794 </r>
       <r>     0.0219     0.0000    37.0000 </r>
       <r>     0.0892     0.0000    37.0000 </r>
       <r>     0.1564     0.0000    37.0000 </r>
       <r>     0.2237     0.0000    37.0000 </r>
       <r>     0.2909     0.0000    37.0000 </r>
       <r>     0.3582     0.0000    37.0000 </r>
       <r>     0.4254     0.0000    37.0000 </r>
       <r>     0.4926     0.0000    37.0000 </r>
       <r>     0.5599     0.7789    37.0783 </r>
       <r>     0.6271     1.0101    37.1384 </r>
       <r>     0.6944     1.2413    37.2141 </r>
       <r>     0.7616     1.4725    37.3054 </r>
       <r>     0.8289     1.7037    37.4122 </r>
       <r>     0.8961     3.8957    37.6866 </r>
       <r>     0.9634     4.3888    37.9649 </r>
       <r>     1.0306    30.1541    38.3536 </r>
       <r>     1.0978     1.5390    38.6709 </r>
       <r>     1.1651     1.3139    38.7668 </r>
       <r>     1.2323     1.0887    38.8476 </r>
       <r>     1.2996     0.8635    38.9132 </r>
       <r>     1.3668     0.6384    38.9637 </r>
       <r>     1.4341     1.8770    39.1153 </r>
       <r>     1.5013     1.9823    39.2321 </r>
       <r>     1.5686     4.1317    39.5031 </r>
       <r>     1.6358     4.8803    39.8144 </r>
       <r>     1.7031     6.6627    40.2356 </r>
       <r>     1.7703    10.1201    40.7999 </r>
       <r>     1.8375     5.1326    41.2297 </r>
       <r>     1.9048     6.8929    41.5585 </r>
       <r>     1.9720     2.9123    41.9466 </r>
       <r>     2.0393     1.3846    42.0382 </r>
       <r>     2.1065     2.2060    42.1555 </r>
       <r>     2.1738     5.1582    42.4636 </r>
       <r>     2.2410     2.6596    42.6861 </r>
       <r>     2.3083     7.3427    43.1464 </r>
       <r>     2.3755     3.5895    43.5191 </r>
       <r>     2.4428     3.8115    43.7749 </r>
       <r>     2.5100     3.2591    44.0726 </r>
       <r>     2.5772     3.7490    44.3082 </r>
       <r>     2.6445     4.3279    44.5786 </r>
       <r>     2.7117     4.8651    44.9433 </r>
       <r>     2.7790     2.5962    45.2396 </r>
       <r>     2.8462     1.4329    45.3772 </r>
       <r>     2.9135    10.8291    45.6429 </r>
       <r>     2.9807    12.7225    46.3199 </r>
       <r>     3.0480     4.6433    46.9584 </r>
       <r>     3.1152    10.8994    47.1988 </r>
       <r>     3.1824     1.5373    47.5611 </r>
       <r>     3.2497     1.3659    47.6587 </r>
       <r>     3.3169     1.1944    47.7448 </r>
       <r>     3.3842     1.0230    47.8193 </r>
       <r>     3.4514     0.8516    47.8824 </r>
       <r>     3.5187     0.6802    47.9339 </r>
       <r>     3.5859     0.0000    48.0000 </r>
       <r>     3.6532     0.0000    48.0000 </r>
       <r>     3.7204     0.0000    48.0000 </r>
       <r>     3.7877     0.0000    48.0000 </r>
       <r>     3.8549     0.0000    48.0000 </r>
       <r>     3.9221     0.0000    48.0000 </r>
       <r>     3.9894     0.0000    48.0000 </r>
       <r>     4.0566     0.0000    48.0000 </r>
       <r>     4.1239     0.0000    48.0000 </r>
       <r>     4.1911     0.0000    48.0000 </r>
       <r>     4.2584     0.0000    48.0000 </r>
       <r>     4.3256     0.0000    48.0000 </r>
       <r>     4.3929     0.0000    48.0000 </r>
       <r>     4.4601     0.0000    48.0000 </r>
       <r>     4.5274     0.0000    48.0000 </r>
      </set>
      <set comment="spin 2">
       <r>   -15.6462     0.0000     0.0000 </r>
       <r>   -15.5790     0.0000     0.0000 </r>
       <r>   -15.5117     0.0000     0.0000 </r>
       <r>   -15.4445     0.0000     0.0000 </r>
       <r>   -15.3772     0.0000     0.0000 </r>
       <r>   -15.3100     0.0000     0.0000 </r>
       <r>   -15.2427     0.0000     0.0000 </r>
       <r>   -15.1755     0.0000     0.0000 </r>
       <r>   -15.1082     0.0000     0.0000 </r>
       <r>   -15.0410     0.0000     0.0000 </r>
       <r>   -14.9738     0.0000     0.0000 </r>
       <r>   -14.9065     0.0000     0.0000 </r>
       <r>   -14.8393     0.0000     0.0000 </r>
       <r>   -14.7720     0.0000     0.0000 </r>
       <r>   -14.7048     0.4170     0.0051 </r>
       <r>   -14.6375     1.5639     0.0717 </r>
       <r>   -14.5703     1.1880     0.1662 </r>
       <r>   -14.5030     1.3323     0.2509 </r>
       <r>   -14.4358     1.4766     0.3453 </r>
       <r>   -14.3685     1.7747     0.4513 </r>
       <r>   -14.3013     3.7912     0.5950 </r>
       <r>   -14.2341     2.5561     0.8084 </r>
       <r>   -14.1668     1.3211     0.9388 </r>
       <r>   -14.0996     0.0000     1.0000 </r>
       <r>   -14.0323     0.0000     1.0000 </r>
       <r>   -13.9651     0.0000     1.0000 </r>
       <r>   -13.8978     0.0000     1.0000 </r>
       <r>   -13.8306     0.4593     1.0039 </r>
       <r>   -13.7633     2.2746     1.0958 </r>
       <r>   -13.6961     1.7739     1.2113 </r>
       <r>   -13.6288     2.1924     1.3447 </r>
       <r>   -13.5616     4.7053     1.9892 </r>
       <r>   -13.4944     2.2529     2.0430 </r>
       <r>   -13.4271     2.9181     2.2169 </r>
       <r>   -13.3599     3.6515     2.5404 </r>
       <r>   -13.2926     1.0329     2.6542 </r>
       <r>   -13.2254     3.5310     2.9151 </r>
       <r>   -13.1581     3.9283     3.1669 </r>
       <r>   -13.0909     6.5005     3.5233 </r>
       <r>   -13.0236     6.7404     3.9484 </r>
       <r>   -12.9564    10.7904     4.4300 </r>
       <r>   -12.8892     8.7974     5.3067 </r>
       <r>   -12.8219     5.3791     5.7597 </r>
       <r>   -12.7547     0.0000     6.0000 </r>
       <r>   -12.6874     0.0000     6.0000 </r>
       <r>   -12.6202     0.0000     6.0000 </r>
       <r>   -12.5529     0.0000     6.0000 </r>
       <r>   -12.4857     0.0000     6.0000 </r>
       <r>   -12.4184     0.0000     6.0000 </r>
       <r>   -12.3512     0.0000     6.0000 </r>
       <r>   -12.2839     0.0000     6.0000 </r>
       <r>   -12.2167     0.0000     6.0000 </r>
       <r>   -12.1495     0.0000     6.0000 </r>
       <r>   -12.0822     0.0000     6.0000 </r>
       <r>   -12.0150     0.0000     6.0000 </r>
       <r>   -11.9477     0.0000     6.0000 </r>
       <r>   -11.8805     0.0000     6.0000 </r>
       <r>   -11.8132     0.0000     6.0000 </r>
       <r>   -11.7460     0.0000     6.0000 </r>
       <r>   -11.6787     0.0000     6.0000 </r>
       <r>   -11.6115     0.0000     6.0000 </r>
       <r>   -11.5442     0.0000     6.0000 </r>
       <r>   -11.4770     0.0000     6.0000 </r>
       <r>   -11.4098     0.0000     6.0000 </r>
       <r>   -11.3425     0.0000     6.0000 </r>
       <r>   -11.2753     0.0000     6.0000 </r>
       <r>   -11.2080     0.0000     6.0000 </r>
       <r>   -11.1408     0.0000     6.0000 </r>
       <r>   -11.0735     0.0000     6.0000 </r>
       <r>   -11.0063     0.0550     6.0002 </r>
       <r>   -10.9390     0.5915     6.0219 </r>
       <r>   -10.8718     1.1279     6.0797 </r>
       <r>   -10.8046     1.2488     6.1614 </r>
       <r>   -10.7373     1.5227     6.2546 </r>
       <r>   -10.6701     1.7967     6.3662 </r>
       <r>   -10.6028     3.4654     6.5101 </r>
       <r>   -10.5356     3.5966     6.8244 </r>
       <r>   -10.4683     0.0000     7.0000 </r>
       <r>   -10.4011     0.0000     7.0000 </r>
       <r>   -10.3338     0.0000     7.0000 </r>
       <r>   -10.2666     0.0000     7.0000 </r>
       <r>   -10.1993     0.0000     7.0000 </r>
       <r>   -10.1321     0.0000     7.0000 </r>
       <r>   -10.0649     0.0000     7.0000 </r>
       <r>    -9.9976     0.0000     7.0000 </r>
       <r>    -9.9304     0.0000     7.0000 </r>
       <r>    -9.8631     0.0000     7.0000 </r>
       <r>    -9.7959     0.0000     7.0000 </r>
       <r>    -9.7286     0.0000     7.0000 </r>
       <r>    -9.6614     0.0000     7.0000 </r>
       <r>    -9.5941     0.0000     7.0000 </r>
       <r>    -9.5269     0.0000     7.0000 </r>
       <r>    -9.4596     0.0000     7.0000 </r>
       <r>    -9.3924     0.0000     7.0000 </r>
       <r>    -9.3252     0.0000     7.0000 </r>
       <r>    -9.2579     0.0000     7.0000 </r>
       <r>    -9.1907     0.0000     7.0000 </r>
       <r>    -9.1234     0.0000     7.0000 </r>
       <r>    -9.0562     0.0000     7.0000 </r>
       <r>    -8.9889    69.8698     7.2627 </r>
       <r>    -8.9217     0.0000     8.0000 </r>
       <r>    -8.8544     0.0000     8.0000 </r>
       <r>    -8.7872     0.0000     8.0000 </r>
       <r>    -8.7199     0.0000     8.0000 </r>
       <r>    -8.6527     0.0000     8.0000 </r>
       <r>    -8.5855     0.0000     8.0000 </r>
       <r>    -8.5182     0.0000     8.0000 </r>
       <r>    -8.4510     0.0000     8.0000 </r>
       <r>    -8.3837     0.0000     8.0000 </r>
       <r>    -8.3165     0.0000     8.0000 </r>
       <r>    -8.2492     0.0000     8.0000 </r>
       <r>    -8.1820     0.0000     8.0000 </r>
       <r>    -8.1147     0.0000     8.0000 </r>
       <r>    -8.0475     0.0000     8.0000 </r>
       <r>    -7.9803     0.0000     8.0000 </r>
       <r>    -7.9130     0.0000     8.0000 </r>
       <r>    -7.8458     0.0000     8.0000 </r>
       <r>    -7.7785     0.0000     8.0000 </r>
       <r>    -7.7113     0.0000     8.0000 </r>
       <r>    -7.6440     0.0000     8.0000 </r>
       <r>    -7.5768     0.0000     8.0000 </r>
       <r>    -7.5095     0.0000     8.0000 </r>
       <r>    -7.4423     0.0000     8.0000 </r>
       <r>    -7.3750     0.0000     8.0000 </r>
       <r>    -7.3078     0.0000     8.0000 </r>
       <r>    -7.2406     0.0000     8.0000 </r>
       <r>    -7.1733     0.0000     8.0000 </r>
       <r>    -7.1061     0.0000     8.0000 </r>
       <r>    -7.0388     0.0000     8.0000 </r>
       <r>    -6.9716     0.0000     8.0000 </r>
       <r>    -6.9043     0.0000     8.0000 </r>
       <r>    -6.8371     0.0000     8.0000 </r>
       <r>    -6.7698     0.0000     8.0000 </r>
       <r>    -6.7026     0.0000     8.0000 </r>
       <r>    -6.6353     3.1240     8.0415 </r>
       <r>    -6.5681     5.1126     8.4038 </r>
       <r>    -6.5009     4.3901     8.8334 </r>
       <r>    -6.4336     1.6473     9.2443 </r>
       <r>    -6.3664     2.2447     9.3723 </r>
       <r>    -6.2991     3.5877     9.5930 </r>
       <r>    -6.2319     3.2309     9.8401 </r>
       <r>    -6.1646     3.1420    10.0544 </r>
       <r>    -6.0974     3.0531    10.2627 </r>
       <r>    -6.0301     1.7732    10.4825 </r>
       <r>    -5.9629     4.9085    10.7058 </r>
       <r>    -5.8957     3.4908    11.0410 </r>
       <r>    -5.8284     3.2076    11.2662 </r>
       <r>    -5.7612     1.4459    11.4180 </r>
       <r>    -5.6939     1.6270    11.5214 </r>
       <r>    -5.6267     2.6393    11.6342 </r>
       <r>    -5.5594     4.0594    11.9966 </r>
       <r>    -5.4922     3.7541    12.2593 </r>
       <r>    -5.4249     0.9402    12.3652 </r>
[...]
        <r>  0.0038  0.0013  0.0001  0.0009  0.0425  0.0244  0.0995  0.0465  0.0900 </r>
        <r>  0.0005  0.0183  0.0011  0.0065  0.0009  0.0000  0.0001  0.0000  0.0003 </r>
        <r>  0.0005  0.0183  0.0011  0.0065  0.0009  0.0000  0.0001  0.0000  0.0003 </r>
        <r>  0.0003  0.0005  0.0014  0.0003  0.0020  0.0001  0.0004  0.0002  0.0012 </r>
        <r>  0.0025  0.0013  0.0042  0.0004  0.0019  0.0001  0.0026  0.0000  0.0007 </r>
        <r>  0.0003  0.0006  0.0013  0.0002  0.0014  0.0001  0.0003  0.0002  0.0019 </r>
        <r>  0.0003  0.0005  0.0014  0.0003  0.0020  0.0001  0.0004  0.0002  0.0012 </r>
        <r>  0.0025  0.0013  0.0042  0.0004  0.0019  0.0001  0.0026  0.0000  0.0007 </r>
        <r>  0.0003  0.0006  0.0013  0.0002  0.0014  0.0001  0.0003  0.0002  0.0019 </r>
       </set>
       <set comment="band 30">
        <r>  0.0000  0.0003  0.0000  0.0001  0.1399  0.0125  0.0181  0.0122  0.2426 </r>
        <r>  0.0000  0.0003  0.0000  0.0001  0.1399  0.0125  0.0181  0.0122  0.2426 </r>
        <r>  0.0000  0.0001  0.0000  0.0002  0.0000  0.0000  0.0000  0.0000  0.0000 </r>
        <r>  0.0000  0.0001  0.0000  0.0002  0.0000  0.0000  0.0000  0.0000  0.0000 </r>
        <r>  0.0002  0.0019  0.0008  0.0001  0.0007  0.0002  0.0001  0.0000  0.0001 </r>
        <r>  0.0000  0.0007  0.0000  0.0023  0.0002  0.0002  0.0000  0.0006  0.0006 </r>
        <r>  0.0002  0.0006  0.0008  0.0014  0.0001  0.0001  0.0001  0.0001  0.0007 </r>
        <r>  0.0002  0.0019  0.0008  0.0001  0.0007  0.0002  0.0001  0.0000  0.0001 </r>
        <r>  0.0000  0.0007  0.0000  0.0023  0.0002  0.0002  0.0000  0.0006  0.0006 </r>
        <r>  0.0002  0.0006  0.0008  0.0014  0.0001  0.0001  0.0001  0.0001  0.0007 </r>
       </set>
       <set comment="band 31">
        <r>  0.0023  0.0002  0.0001  0.0004  0.0715  0.0005  0.2317  0.0001  0.0982 </r>
        <r>  0.0023  0.0002  0.0001  0.0004  0.0715  0.0005  0.2317  0.0001  0.0982 </r>
        <r>  0.0009  0.0057  0.0020  0.0016  0.0002  0.0000  0.0002  0.0000  0.0001 </r>
        <r>  0.0009  0.0057  0.0020  0.0016  0.0002  0.0000  0.0002  0.0000  0.0001 </r>
        <r>  0.0001  0.0009  0.0009  0.0006  0.0001  0.0007  0.0001  0.0002  0.0000 </r>
        <r>  0.0007  0.0004  0.0036  0.0001  0.0004  0.0000  0.0012  0.0000  0.0001 </r>
        <r>  0.0002  0.0001  0.0010  0.0013  0.0000  0.0001  0.0001  0.0007  0.0001 </r>
        <r>  0.0001  0.0009  0.0009  0.0006  0.0001  0.0007  0.0001  0.0002  0.0000 </r>
        <r>  0.0007  0.0004  0.0036  0.0001  0.0004  0.0000  0.0012  0.0000  0.0001 </r>
        <r>  0.0002  0.0001  0.0010  0.0013  0.0000  0.0001  0.0001  0.0007  0.0001 </r>
       </set>
       <set comment="band 32">
        <r>  0.0033  0.0002  0.0003  0.0006  0.1469  0.0055  0.1710  0.0055  0.0652 </r>
        <r>  0.0033  0.0002  0.0003  0.0006  0.1469  0.0055  0.1710  0.0055  0.0652 </r>
        <r>  0.0000  0.0033  0.0000  0.0107  0.0001  0.0000  0.0000  0.0001  0.0002 </r>
        <r>  0.0000  0.0033  0.0000  0.0107  0.0001  0.0000  0.0000  0.0001  0.0002 </r>
        <r>  0.0012  0.0023  0.0014  0.0011  0.0001  0.0005  0.0008  0.0000  0.0001 </r>
        <r>  0.0000  0.0003  0.0000  0.0008  0.0002  0.0003  0.0000  0.0010  0.0005 </r>
        <r>  0.0011  0.0006  0.0013  0.0029  0.0000  0.0001  0.0007  0.0005  0.0002 </r>
        <r>  0.0012  0.0023  0.0014  0.0011  0.0001  0.0005  0.0008  0.0000  0.0001 </r>
        <r>  0.0000  0.0003  0.0000  0.0008  0.0002  0.0003  0.0000  0.0010  0.0005 </r>
        <r>  0.0011  0.0006  0.0013  0.0029  0.0000  0.0001  0.0007  0.0005  0.0002 </r>
       </set>
       <set comment="band 33">
        <r>  0.0006  0.0000  0.0012  0.0001  0.0018  0.1740  0.0676  0.0573  0.0009 </r>
        <r>  0.0006  0.0000  0.0012  0.0001  0.0018  0.1740  0.0676  0.0573  0.0009 </r>
        <r>  0.0000  0.0027  0.0001  0.0088  0.0008  0.0001  0.0000  0.0004  0.0024 </r>
        <r>  0.0000  0.0027  0.0001  0.0088  0.0008  0.0001  0.0000  0.0004  0.0024 </r>
        <r>  0.0037  0.0038  0.0041  0.0088  0.0016  0.0008  0.0000  0.0005  0.0003 </r>
        <r>  0.0001  0.0010  0.0001  0.0033  0.0006  0.0004  0.0000  0.0008  0.0017 </r>
        <r>  0.0044  0.0041  0.0042  0.0084  0.0002  0.0000  0.0001  0.0008  0.0016 </r>
        <r>  0.0037  0.0038  0.0041  0.0088  0.0016  0.0008  0.0000  0.0005  0.0003 </r>
        <r>  0.0001  0.0010  0.0001  0.0033  0.0006  0.0004  0.0000  0.0008  0.0017 </r>
        <r>  0.0044  0.0041  0.0042  0.0084  0.0002  0.0000  0.0001  0.0008  0.0016 </r>
       </set>
       <set comment="band 34">
        <r>  0.0008  0.0001  0.0000  0.0000  0.0943  0.0215  0.0111  0.0965  0.0791 </r>
        <r>  0.0008  0.0001  0.0000  0.0000  0.0943  0.0215  0.0111  0.0965  0.0791 </r>
        <r>  0.0027  0.0025  0.0152  0.0006  0.0000  0.0000  0.0039  0.0000  0.0001 </r>
        <r>  0.0027  0.0025  0.0152  0.0006  0.0000  0.0000  0.0039  0.0000  0.0001 </r>
        <r>  0.0032  0.0007  0.0054  0.0016  0.0000  0.0002  0.0002  0.0016  0.0003 </r>
        <r>  0.0086  0.0016  0.0056  0.0004  0.0000  0.0009  0.0001  0.0004  0.0001 </r>
        <r>  0.0025  0.0008  0.0053  0.0017  0.0002  0.0009  0.0002  0.0013  0.0002 </r>
        <r>  0.0032  0.0007  0.0054  0.0016  0.0000  0.0002  0.0002  0.0016  0.0003 </r>
        <r>  0.0086  0.0016  0.0056  0.0004  0.0000  0.0009  0.0001  0.0004  0.0001 </r>
        <r>  0.0025  0.0008  0.0053  0.0017  0.0002  0.0009  0.0002  0.0013  0.0002 </r>
       </set>
       <set comment="band 35">
        <r>  0.0001  0.0002  0.0000  0.0001  0.0544  0.1152  0.0289  0.1154  0.0185 </r>
        <r>  0.0001  0.0002  0.0000  0.0001  0.0544  0.1152  0.0289  0.1154  0.0185 </r>
        <r>  0.0017  0.0000  0.0008  0.0000  0.0002  0.0002  0.0003  0.0001  0.0001 </r>
        <r>  0.0017  0.0000  0.0008  0.0000  0.0002  0.0002  0.0003  0.0001  0.0001 </r>
        <r>  0.0026  0.0080  0.0057  0.0001  0.0001  0.0016  0.0000  0.0002  0.0002 </r>
        <r>  0.0043  0.0155  0.0089  0.0051  0.0005  0.0002  0.0003  0.0001  0.0002 </r>
        <r>  0.0025  0.0022  0.0056  0.0060  0.0002  0.0010  0.0000  0.0008  0.0001 </r>
        <r>  0.0026  0.0080  0.0057  0.0001  0.0001  0.0016  0.0000  0.0002  0.0002 </r>
        <r>  0.0043  0.0155  0.0089  0.0051  0.0005  0.0002  0.0003  0.0001  0.0002 </r>
        <r>  0.0025  0.0022  0.0056  0.0060  0.0002  0.0010  0.0000  0.0008  0.0001 </r>
       </set>
       <set comment="band 36">
        <r>  0.0013  0.0005  0.0002  0.0004  0.0047  0.0785  0.0077  0.1977  0.0130 </r>
        <r>  0.0013  0.0005  0.0002  0.0004  0.0047  0.0785  0.0077  0.1977  0.0130 </r>
        <r>  0.0000  0.0015  0.0000  0.0042  0.0001  0.0001  0.0000  0.0003  0.0002 </r>
        <r>  0.0000  0.0015  0.0000  0.0042  0.0001  0.0001  0.0000  0.0003  0.0002 </r>
        <r>  0.0037  0.0205  0.0016  0.0019  0.0006  0.0005  0.0001  0.0001  0.0003 </r>
        <r>  0.0000  0.0059  0.0000  0.0178  0.0002  0.0009  0.0000  0.0027  0.0008 </r>
        <r>  0.0039  0.0024  0.0018  0.0203  0.0001  0.0000  0.0001  0.0006  0.0008 </r>
        <r>  0.0037  0.0205  0.0016  0.0019  0.0006  0.0005  0.0001  0.0001  0.0003 </r>
        <r>  0.0000  0.0059  0.0000  0.0178  0.0002  0.0009  0.0000  0.0027  0.0008 </r>
        <r>  0.0039  0.0024  0.0018  0.0203  0.0001  0.0000  0.0001  0.0006  0.0008 </r>
       </set>
       <set comment="band 37">
        <r>  0.0048  0.0001  0.0011  0.0001  0.0121  0.0700  0.0017  0.0516  0.0153 </r>
        <r>  0.0048  0.0001  0.0011  0.0001  0.0121  0.0700  0.0017  0.0516  0.0153 </r>
        <r>  0.0087  0.0251  0.0189  0.0087  0.0019  0.0023  0.0002  0.0008  0.0007 </r>
        <r>  0.0087  0.0251  0.0189  0.0087  0.0019  0.0023  0.0002  0.0008  0.0007 </r>
        <r>  0.0011  0.0005  0.0059  0.0165  0.0017  0.0004  0.0001  0.0005  0.0022 </r>
        <r>  0.0057  0.0179  0.0002  0.0060  0.0005  0.0017  0.0002  0.0006  0.0002 </r>
        <r>  0.0010  0.0105  0.0058  0.0061  0.0023  0.0001  0.0001  0.0007  0.0016 </r>
        <r>  0.0011  0.0005  0.0059  0.0165  0.0017  0.0004  0.0001  0.0005  0.0022 </r>
        <r>  0.0057  0.0179  0.0002  0.0060  0.0005  0.0017  0.0002  0.0006  0.0002 </r>
        <r>  0.0010  0.0105  0.0058  0.0061  0.0023  0.0001  0.0001  0.0007  0.0016 </r>
       </set>
       <set comment="band 38">
        <r>  0.0102  0.0006  0.0008  0.0018  0.0315  0.0537  0.0001  0.0207  0.0109 </r>
        <r>  0.0102  0.0006  0.0008  0.0018  0.0315  0.0537  0.0001  0.0207  0.0109 </r>
        <r>  0.0090  0.0266  0.0192  0.0088  0.0024  0.0025  0.0001  0.0008  0.0008 </r>
        <r>  0.0090  0.0266  0.0192  0.0088  0.0024  0.0025  0.0001  0.0008  0.0008 </r>
        <r>  0.0011  0.0004  0.0025  0.0144  0.0022  0.0013  0.0001  0.0007  0.0005 </r>
        <r>  0.0063  0.0296  0.0035  0.0100  0.0017  0.0014  0.0003  0.0005  0.0006 </r>
        <r>  0.0012  0.0090  0.0026  0.0058  0.0017  0.0012  0.0001  0.0009  0.0009 </r>
        <r>  0.0011  0.0004  0.0025  0.0144  0.0022  0.0013  0.0001  0.0007  0.0005 </r>
        <r>  0.0063  0.0296  0.0035  0.0100  0.0017  0.0014  0.0003  0.0005  0.0006 </r>
        <r>  0.0012  0.0090  0.0026  0.0058  0.0017  0.0012  0.0001  0.0009  0.0009 </r>
       </set>
       <set comment="band 39">
        <r>  0.0118  0.0023  0.0014  0.0015  0.0190  0.0348  0.0063  0.0160  0.0067 </r>
        <r>  0.0118  0.0023  0.0014  0.0015  0.0190  0.0348  0.0063  0.0160  0.0067 </r>
        <r>  0.0000  0.0115  0.0000  0.0343  0.0006  0.0015  0.0000  0.0046  0.0019 </r>
        <r>  0.0000  0.0115  0.0000  0.0343  0.0006  0.0015  0.0000  0.0046  0.0019 </r>
        <r>  0.0061  0.0208  0.0005  0.0254  0.0011  0.0015  0.0002  0.0019  0.0017 </r>
        <r>  0.0000  0.0032  0.0000  0.0097  0.0008  0.0001  0.0000  0.0003  0.0025 </r>
        <r>  0.0061  0.0432  0.0005  0.0030  0.0016  0.0027  0.0002  0.0008  0.0012 </r>
        <r>  0.0061  0.0208  0.0005  0.0254  0.0011  0.0015  0.0002  0.0019  0.0017 </r>
        <r>  0.0000  0.0032  0.0000  0.0097  0.0008  0.0001  0.0000  0.0003  0.0025 </r>
        <r>  0.0061  0.0432  0.0005  0.0030  0.0016  0.0027  0.0002  0.0008  0.0012 </r>
       </set>
       <set comment="band 40">
        <r>  0.0150  0.0001  0.0037  0.0003  0.0130  0.0028  0.0231  0.0084  0.0150 </r>
        <r>  0.0150  0.0001  0.0037  0.0003  0.0130  0.0028  0.0231  0.0084  0.0150 </r>
        <r>  0.0004  0.0593  0.0011  0.0196  0.0064  0.0008  0.0004  0.0003  0.0021 </r>
        <r>  0.0004  0.0593  0.0011  0.0196  0.0064  0.0008  0.0004  0.0003  0.0021 </r>
        <r>  0.0015  0.0021  0.0005  0.0004  0.0069  0.0000  0.0003  0.0000  0.0017 </r>
        <r>  0.0176  0.0176  0.0020  0.0060  0.0037  0.0005  0.0010  0.0002  0.0012 </r>
        <r>  0.0016  0.0003  0.0005  0.0022  0.0049  0.0001  0.0003  0.0000  0.0037 </r>
        <r>  0.0015  0.0021  0.0005  0.0004  0.0069  0.0000  0.0003  0.0000  0.0017 </r>
        <r>  0.0176  0.0176  0.0020  0.0060  0.0037  0.0005  0.0010  0.0002  0.0012 </r>
        <r>  0.0016  0.0003  0.0005  0.0022  0.0049  0.0001  0.0003  0.0000  0.0037 </r>
       </set>
       <set comment="band 41">
        <r>  0.0093  0.0005  0.0022  0.0002  0.0127  0.0152  0.0072  0.0172  0.0209 </r>
        <r>  0.0093  0.0005  0.0022  0.0002  0.0127  0.0152  0.0072  0.0172  0.0209 </r>
        <r>  0.0000  0.0156  0.0000  0.0475  0.0018  0.0001  0.0000  0.0004  0.0056 </r>
        <r>  0.0000  0.0156  0.0000  0.0475  0.0018  0.0001  0.0000  0.0004  0.0056 </r>
        <r>  0.0059  0.0071  0.0008  0.0176  0.0019  0.0001  0.0015  0.0002  0.0039 </r>
        <r>  0.0000  0.0034  0.0000  0.0100  0.0022  0.0001  0.0000  0.0002  0.0066 </r>
        <r>  0.0058  0.0241  0.0008  0.0007  0.0016  0.0000  0.0015  0.0002  0.0042 </r>
        <r>  0.0059  0.0071  0.0008  0.0176  0.0019  0.0001  0.0015  0.0002  0.0039 </r>
        <r>  0.0000  0.0034  0.0000  0.0100  0.0022  0.0001  0.0000  0.0002  0.0066 </r>
        <r>  0.0058  0.0241  0.0008  0.0007  0.0016  0.0000  0.0015  0.0002  0.0042 </r>
       </set>
       <set comment="band 42">
        <r>  0.0000  0.0059  0.0007  0.0029  0.0249  0.0032  0.0007  0.0047  0.0237 </r>
        <r>  0.0000  0.0059  0.0007  0.0029  0.0249  0.0032  0.0007  0.0047  0.0237 </r>
        <r>  0.0153  0.0004  0.0549  0.0001  0.0002  0.0000  0.0118  0.0000  0.0000 </r>
        <r>  0.0153  0.0004  0.0549  0.0001  0.0002  0.0000  0.0118  0.0000  0.0000 </r>
        <r>  0.0016  0.0002  0.0089  0.0003  0.0001  0.0008  0.0004  0.0050  0.0003 </r>
        <r>  0.0010  0.0004  0.0198  0.0001  0.0009  0.0028  0.0005  0.0009  0.0003 </r>
        <r>  0.0017  0.0001  0.0089  0.0005  0.0002  0.0056  0.0004  0.0002  0.0002 </r>
        <r>  0.0016  0.0002  0.0089  0.0003  0.0001  0.0008  0.0004  0.0050  0.0003 </r>
        <r>  0.0010  0.0004  0.0198  0.0001  0.0009  0.0028  0.0005  0.0009  0.0003 </r>
        <r>  0.0017  0.0001  0.0089  0.0005  0.0002  0.0056  0.0004  0.0002  0.0002 </r>
       </set>
       <set comment="band 43">
        <r>  0.0312  0.0035  0.0051  0.0058  0.0042  0.0017  0.0031  0.0009  0.0055 </r>
        <r>  0.0312  0.0035  0.0051  0.0058  0.0042  0.0017  0.0031  0.0009  0.0055 </r>
        <r>  0.0007  0.0097  0.0004  0.0033  0.0017  0.0003  0.0001  0.0001  0.0006 </r>
        <r>  0.0007  0.0097  0.0004  0.0033  0.0017  0.0003  0.0001  0.0001  0.0006 </r>
        <r>  0.0006  0.0041  0.0006  0.0004  0.0020  0.0129  0.0008  0.0004  0.0002 </r>
        <r>  0.0005  0.0084  0.0135  0.0028  0.0000  0.0011  0.0031  0.0004  0.0000 </r>
        <r>  0.0006  0.0007  0.0006  0.0038  0.0012  0.0049  0.0007  0.0084  0.0010 </r>
        <r>  0.0006  0.0041  0.0006  0.0004  0.0020  0.0129  0.0008  0.0004  0.0002 </r>
        <r>  0.0005  0.0084  0.0135  0.0028  0.0000  0.0011  0.0031  0.0004  0.0000 </r>
        <r>  0.0006  0.0007  0.0006  0.0038  0.0012  0.0049  0.0007  0.0084  0.0010 </r>
       </set>
       <set comment="band 44">
        <r>  0.0041  0.0006  0.0000  0.0011  0.0008  0.0043  0.0087  0.0021  0.0016 </r>
        <r>  0.0041  0.0006  0.0000  0.0011  0.0008  0.0043  0.0087  0.0021  0.0016 </r>
        <r>  0.0009  0.0029  0.0049  0.0010  0.0002  0.0000  0.0037  0.0000  0.0001 </r>
        <r>  0.0009  0.0029  0.0049  0.0010  0.0002  0.0000  0.0037  0.0000  0.0001 </r>
        <r>  0.0003  0.0014  0.0021  0.0042  0.0000  0.0006  0.0003  0.0008  0.0001 </r>
        <r>  0.0030  0.0005  0.0039  0.0002  0.0003  0.0011  0.0050  0.0003  0.0001 </r>
        <r>  0.0003  0.0014  0.0023  0.0041  0.0001  0.0012  0.0004  0.0001  0.0000 </r>
        <r>  0.0003  0.0014  0.0021  0.0042  0.0000  0.0006  0.0003  0.0008  0.0001 </r>
        <r>  0.0030  0.0005  0.0039  0.0002  0.0003  0.0011  0.0050  0.0003  0.0001 </r>
        <r>  0.0003  0.0014  0.0023  0.0041  0.0001  0.0012  0.0004  0.0001  0.0000 </r>
       </set>
       <set comment="band 45">
        <r>  0.0042  0.0046  0.0042  0.0026  0.0052  0.0009  0.0004  0.0005  0.0067 </r>
        <r>  0.0042  0.0046  0.0042  0.0026  0.0052  0.0009  0.0004  0.0005  0.0067 </r>
        <r>  0.0000  0.0015  0.0000  0.0044  0.0002  0.0000  0.0000  0.0001  0.0007 </r>
        <r>  0.0000  0.0015  0.0000  0.0044  0.0002  0.0000  0.0000  0.0001  0.0007 </r>
        <r>  0.0010  0.0013  0.0096  0.0029  0.0004  0.0020  0.0027  0.0018  0.0006 </r>
        <r>  0.0000  0.0007  0.0000  0.0022  0.0004  0.0018  0.0000  0.0054  0.0011 </r>
        <r>  0.0010  0.0037  0.0094  0.0004  0.0003  0.0004  0.0028  0.0033  0.0007 </r>
        <r>  0.0010  0.0013  0.0096  0.0029  0.0004  0.0020  0.0027  0.0018  0.0006 </r>
        <r>  0.0000  0.0007  0.0000  0.0022  0.0004  0.0018  0.0000  0.0054  0.0011 </r>
        <r>  0.0010  0.0037  0.0094  0.0004  0.0003  0.0004  0.0028  0.0033  0.0007 </r>
       </set>
       <set comment="band 46">
        <r>  0.0034  0.0005  0.0000  0.0011  0.0008  0.0003  0.0130  0.0001  0.0015 </r>
        <r>  0.0034  0.0005  0.0000  0.0011  0.0008  0.0003  0.0130  0.0001  0.0015 </r>
        <r>  0.0000  0.0008  0.0000  0.0025  0.0002  0.0001  0.0000  0.0004  0.0004 </r>
        <r>  0.0000  0.0008  0.0000  0.0025  0.0002  0.0001  0.0000  0.0004  0.0004 </r>
        <r>  0.0025  0.0011  0.0028  0.0023  0.0000  0.0000  0.0033  0.0001  0.0004 </r>
        <r>  0.0000  0.0007  0.0000  0.0022  0.0002  0.0000  0.0000  0.0001  0.0005 </r>
        <r>  0.0026  0.0027  0.0029  0.0008  0.0002  0.0000  0.0033  0.0001  0.0002 </r>
        <r>  0.0025  0.0011  0.0028  0.0023  0.0000  0.0000  0.0033  0.0001  0.0004 </r>
        <r>  0.0000  0.0007  0.0000  0.0022  0.0002  0.0000  0.0000  0.0001  0.0005 </r>
        <r>  0.0026  0.0027  0.0029  0.0008  0.0002  0.0000  0.0033  0.0001  0.0002 </r>
       </set>
       <set comment="band 47">
        <r>  0.0190  0.0008  0.0070  0.0012  0.0036  0.0004  0.0008  0.0005  0.0103 </r>
        <r>  0.0190  0.0008  0.0070  0.0012  0.0036  0.0004  0.0008  0.0005  0.0103 </r>
        <r>  0.0006  0.0043  0.0049  0.0014  0.0017  0.0032  0.0011  0.0011  0.0006 </r>
        <r>  0.0006  0.0043  0.0049  0.0014  0.0017  0.0032  0.0011  0.0011  0.0006 </r>
        <r>  0.0003  0.0014  0.0058  0.0003  0.0020  0.0052  0.0000  0.0001  0.0005 </r>
        <r>  0.0002  0.0014  0.0098  0.0005  0.0028  0.0057  0.0028  0.0019  0.0009 </r>
        <r>  0.0003  0.0002  0.0057  0.0014  0.0003  0.0010  0.0000  0.0042  0.0022 </r>
        <r>  0.0003  0.0014  0.0058  0.0003  0.0020  0.0052  0.0000  0.0001  0.0005 </r>
        <r>  0.0002  0.0014  0.0098  0.0005  0.0028  0.0057  0.0028  0.0019  0.0009 </r>
        <r>  0.0003  0.0002  0.0057  0.0014  0.0003  0.0010  0.0000  0.0042  0.0022 </r>
       </set>
       <set comment="band 48">
        <r>  0.0008  0.0003  0.0000  0.0005  0.0001  0.0004  0.0000  0.0003  0.0001 </r>
        <r>  0.0008  0.0003  0.0000  0.0005  0.0001  0.0004  0.0000  0.0003  0.0001 </r>
        <r>  0.0002  0.0002  0.0002  0.0001  0.0000  0.0000  0.0006  0.0000  0.0000 </r>
        <r>  0.0002  0.0002  0.0002  0.0001  0.0000  0.0000  0.0006  0.0000  0.0000 </r>
        <r>  0.0003  0.0001  0.0003  0.0004  0.0000  0.0002  0.0004  0.0001  0.0000 </r>
        <r>  0.0002  0.0006  0.0004  0.0002  0.0000  0.0000  0.0002  0.0000  0.0000 </r>
        <r>  0.0003  0.0005  0.0003  0.0000  0.0000  0.0000  0.0004  0.0003  0.0001 </r>
        <r>  0.0003  0.0001  0.0003  0.0004  0.0000  0.0002  0.0004  0.0001  0.0000 </r>
        <r>  0.0002  0.0006  0.0004  0.0002  0.0000  0.0000  0.0002  0.0000  0.0000 </r>
        <r>  0.0003  0.0005  0.0003  0.0000  0.0000  0.0000  0.0004  0.0003  0.0001 </r>
       </set>
      </set>
     </set>
    </set>
   </array>
  </projected>
 </calculation>
 <structure name="finalpos" >
  <crystal>
   <varray name="basis" >
    <v>       6.91900398      -0.00000001       0.00000000 </v>
    <v>       3.45950150       5.99203284       0.00000000 </v>
    <v>       0.00000000      -0.00000000      23.47251561 </v>
   </varray>
   <i name="volume">    973.14465780 </i>
   <varray name="rec_basis" >
    <v>       0.14452947      -0.08344412      -0.00000000 </v>
    <v>       0.00000000       0.16688827       0.00000000 </v>
    <v>      -0.00000000      -0.00000000       0.04260302 </v>
   </varray>
  </crystal>
  <varray name="positions" >
   <v>       0.33333300       0.33333300       0.49992100 </v>
   <v>       0.66666700       0.66666700       0.50007900 </v>
   <v>       0.00000000       0.00000000       0.44824791 </v>
   <v>       0.00000000       0.00000000       0.55175209 </v>
   <v>       0.62590704       0.00037734       0.57378629 </v>
   <v>       0.00037734       0.37371662       0.57378629 </v>
   <v>       0.37371662       0.62590704       0.57378629 </v>
   <v>       0.37409296       0.99962266       0.42621371 </v>
   <v>       0.99962266       0.62628338       0.42621371 </v>
   <v>       0.62628338       0.37409296       0.42621371 </v>
  </varray>
 </structure>
</modeling>
