unknown system                          
           1
     6.907777   -0.000000    0.000000
     3.453888    5.982310    0.000000
     0.000000    0.000000   23.444588
   Cr   Ge   Te
   2   2   6
Direct configuration=     1
   0.33333300  0.33333300  0.49992500
   0.66666700  0.66666700  0.50007500
   0.00000000  0.00000000  0.44821600
   0.00000000  0.00000000  0.55178400
   0.62635700  0.00042000  0.57375200
   0.00042000  0.37322400  0.57375200
   0.37322400  0.62635700  0.57375200
   0.37364300  0.99958000  0.42624800
   0.99958000  0.62677600  0.42624800
   0.62677600  0.37364300  0.42624800
unknown system                          
           1
     6.924694   -0.000000    0.000000
     3.462347    5.996961    0.000000
     0.000000   -0.000000   23.486670
   Cr   Ge   Te
   2   2   6
Direct configuration=     2
   0.33333300  0.33333300  0.49991897
   0.66666700  0.66666700  0.50008103
   0.00000000  0.00000000  0.44826404
   0.00000000  0.00000000  0.55173596
   0.62567983  0.00035580  0.57380362
   0.00035580  0.37396537  0.57380362
   0.37396537  0.62567983  0.57380362
   0.37432017  0.99964420  0.42619638
   0.99964420  0.62603463  0.42619638
   0.62603463  0.37432017  0.42619638
unknown system                          
           1
     6.919004   -0.000000    0.000000
     3.459501    5.992033    0.000000
     0.000000   -0.000000   23.472516
   Cr   Ge   Te
   2   2   6
Direct configuration=     3
   0.33333300  0.33333300  0.49992100
   0.66666700  0.66666700  0.50007900
   0.00000000  0.00000000  0.44824791
   0.00000000  0.00000000  0.55175209
   0.62590704  0.00037734  0.57378629
   0.00037734  0.37371662  0.57378629
   0.37371662  0.62590704  0.57378629
   0.37409296  0.99962266  0.42621371
   0.99962266  0.62628338  0.42621371
   0.62628338  0.37409296  0.42621371
