 vasp.5.4.4.18Apr17-6-g9f103f2a35 (build May  1 2020 15:48:39) complex           
 executed on             LinuxGNU date 2020.06.27  11:56:01
 running on   16 total cores
 distrk:  each k-point on   16 cores,    1 groups
 distr:  one band on NCORES_PER_BAND=   1 cores,   16 groups


--------------------------------------------------------------------------------------------------------


 INCAR:
 POTCAR:   PAW_PBE Co 06Sep2000                   
 POTCAR:    PAW_PBE P 17Jan2003                   
 POTCAR:   PAW_PBE Te 08Apr2002                   

 ----------------------------------------------------------------------------- 
|                                                                             |
|           W    W    AA    RRRRR   N    N  II  N    N   GGGG   !!!           |
|           W    W   A  A   R    R  NN   N  II  NN   N  G    G  !!!           |
|           W    W  A    A  R    R  N N  N  II  N N  N  G       !!!           |
|           W WW W  AAAAAA  RRRRR   N  N N  II  N  N N  G  GGG   !            |
|           WW  WW  A    A  R   R   N   NN  II  N   NN  G    G                |
|           W    W  A    A  R    R  N    N  II  N    N   GGGG   !!!           |
|                                                                             |
|      For optimal performance we recommend to set                            |
|        NCORE= 4 - approx SQRT( number of cores)                             |
|      NCORE specifies how many cores store one orbital (NPAR=cpu/NCORE).     |
|      This setting can  greatly improve the performance of VASP for DFT.     |
|      The default,   NCORE=1            might be grossly inefficient         |
|      on modern multi-core architectures or massively parallel machines.     |
|      Do your own testing !!!!                                               |
|      Unfortunately you need to use the default for GW and RPA calculations. |
|      (for HF NCORE is supported but not extensively tested yet)             |
|                                                                             |
 ----------------------------------------------------------------------------- 


 ----------------------------------------------------------------------------- 
|                                                                             |
|  ADVICE TO THIS USER RUNNING 'VASP/VAMP'   (HEAR YOUR MASTER'S VOICE ...):  |
|                                                                             |
|      You have switched on vdW-DFT.                                          |
|      This routine was written and supplied by Jiri Klimes.                  |
|      We recommed that you carefully read and cite the following             |
|      publication                                                            |
|      J. Klimes, D.R. Bowler, A. Michelides                                  |
|        J. Phys.: Cond Matt. 22 022201 (2010)                                |
|      J. Klimes, D.R. Bowler, A. Michelides                                  |
|        Phys. Rev. B. 83, 195131 (2011)                                      |
|      and references therein.                                                |
|                                                                             |
 ----------------------------------------------------------------------------- 

 POTCAR:   PAW_PBE Co 06Sep2000                   
   VRHFIN =Co: d8 s1                                                            
   LEXCH  = PE                                                                  
   EATOM  =   813.5563 eV,   59.7947 Ry                                         
                                                                                
   TITEL  = PAW_PBE Co 06Sep2000                                                
   LULTRA =        F    use ultrasoft PP ?                                      
   IUNSCR =        1    unscreen: 0-lin 1-nonlin 2-no                           
   RPACOR =    2.000    partial core radius                                     
   POMASS =   58.933; ZVAL   =    9.000    mass and valenz                      
   RCORE  =    2.300    outmost cutoff radius                                   
   RWIGS  =    2.460; RWIGS  =    1.302    wigner-seitz radius (au A)           
   ENMAX  =  267.969; ENMIN  =  200.977 eV                                      
   RCLOC  =    1.697    cutoff for local pot                                    
   LCOR   =        T    correct aug charges                                     
   LPAW   =        T    paw PP                                                  
   EAUG   =  477.818                                                            
   DEXC   =    -.016                                                            
   RMAX   =    2.817    core radius for proj-oper                               
   RAUG   =    1.300    factor for augmentation sphere                          
   RDEP   =    2.393    radius for radial grids                                 
   QCUT   =   -4.438; QGAM   =    8.876    optimization parameters              
                                                                                
   Description                                                                  
     l     E      TYP  RCUT    TYP  RCUT                                        
     2   .000     23  2.300                                                     
     2   .000     23  2.300                                                     
     0   .000     23  2.300                                                     
     0   .000     23  2.300                                                     
     1  -.200     23  2.300                                                     
     1   .000     23  2.300                                                     
     3   .000      7   .000                                                     
  local pseudopotential read in
  partial core-charges read in
  atomic valenz-charges read in
  non local Contribution for L=           2  read in
    real space projection operators read in
  non local Contribution for L=           2  read in
    real space projection operators read in
  non local Contribution for L=           0  read in
    real space projection operators read in
  non local Contribution for L=           0  read in
    real space projection operators read in
  non local Contribution for L=           1  read in
    real space projection operators read in
  non local Contribution for L=           1  read in
    real space projection operators read in
    PAW grid and wavefunctions read in

   number of l-projection  operators is LMAX  =           6
   number of lm-projection operators is LMMAX =          18

 POTCAR:    PAW_PBE P 17Jan2003                   
   VRHFIN =P : s2p3                                                             
   LEXCH  = PE                                                                  
   EATOM  =   176.0430 eV,   12.9388 Ry                                         
                                                                                
   TITEL  = PAW_PBE P 17Jan2003                                                 
   LULTRA =        F    use ultrasoft PP ?                                      
   IUNSCR =        1    unscreen: 0-lin 1-nonlin 2-no                           
   RPACOR =    1.500    partial core radius                                     
   POMASS =   30.974; ZVAL   =    5.000    mass and valenz                      
   RCORE  =    1.900    outmost cutoff radius                                   
   RWIGS  =    2.330; RWIGS  =    1.233    wigner-seitz radius (au A)           
   ENMAX  =  270.000; ENMIN  =  191.280 eV                                      
   ICORE  =        2    local potential                                         
   LCOR   =        T    correct aug charges                                     
   LPAW   =        T    paw PP                                                  
   EAUG   =  342.924                                                            
   DEXC   =    -.002                                                            
   RMAX   =    2.887    core radius for proj-oper                               
   RAUG   =    1.300    factor for augmentation sphere                          
   RDEP   =    1.931    radius for radial grids                                 
   QCUT   =   -4.330; QGAM   =    8.659    optimization parameters              
                                                                                
   Description                                                                  
     l     E      TYP  RCUT    TYP  RCUT                                        
     0   .000     23  1.900                                                     
     0   .000     23  1.900                                                     
     1   .000     23  1.900                                                     
     1   .000     23  1.900                                                     
     2   .000     23  1.900                                                     
  local pseudopotential read in
  partial core-charges read in
  atomic valenz-charges read in
  non local Contribution for L=           0  read in
    real space projection operators read in
  non local Contribution for L=           0  read in
    real space projection operators read in
  non local Contribution for L=           1  read in
    real space projection operators read in
  non local Contribution for L=           1  read in
    real space projection operators read in
    PAW grid and wavefunctions read in

   number of l-projection  operators is LMAX  =           4
   number of lm-projection operators is LMMAX =           8

 POTCAR:   PAW_PBE Te 08Apr2002                   
   VRHFIN =Te: s2p4                                                             
   LEXCH  = PE                                                                  
   EATOM  =   223.2721 eV,   16.4100 Ry                                         
                                                                                
   TITEL  = PAW_PBE Te 08Apr2002                                                
   LULTRA =        F    use ultrasoft PP ?                                      
   IUNSCR =        1    unscreen: 0-lin 1-nonlin 2-no                           
   RPACOR =    2.200    partial core radius                                     
   POMASS =  127.600; ZVAL   =    6.000    mass and valenz                      
   RCORE  =    2.300    outmost cutoff radius                                   
   RWIGS  =    2.900; RWIGS  =    1.535    wigner-seitz radius (au A)           
   ENMAX  =  174.982; ENMIN  =  131.236 eV                                      
   ICORE  =        3    local potential                                         
   LCOR   =        T    correct aug charges                                     
   LPAW   =        T    paw PP                                                  
   EAUG   =  368.792                                                            
   DEXC   =    -.169                                                            
   RMAX   =    3.486    core radius for proj-oper                               
   RAUG   =    1.300    factor for augmentation sphere                          
   RDEP   =    2.397    radius for radial grids                                 
   QCUT   =   -3.586; QGAM   =    7.172    optimization parameters              
                                                                                
   Description                                                                  
     l     E      TYP  RCUT    TYP  RCUT                                        
     0   .000     23  2.300                                                     
     0   .000     23  2.300                                                     
     1   .000     23  2.300                                                     
     1   .000     23  2.300                                                     
     2   .000     23  2.300                                                     
     3  -.100     23  2.300                                                     
  local pseudopotential read in
  partial core-charges read in
  atomic valenz-charges read in
  non local Contribution for L=           0  read in
    real space projection operators read in
  non local Contribution for L=           0  read in
    real space projection operators read in
  non local Contribution for L=           1  read in
    real space projection operators read in
  non local Contribution for L=           1  read in
    real space projection operators read in
  non local Contribution for L=           2  read in
    real space projection operators read in
    PAW grid and wavefunctions read in

   number of l-projection  operators is LMAX  =           5
   number of lm-projection operators is LMMAX =          13

 Optimization of the real space projectors (new method)

 maximal supplied QI-value         = 16.25
 optimisation between [QCUT,QGAM] = [ 11.54, 23.24] = [ 37.28,151.24] Ry 
 Optimized for a Real-space Cutoff    1.53 Angstroem

   l    n(q)    QCUT    max X(q) W(low)/X(q) W(high)/X(q)  e(spline) 
   2     10    11.539     4.599    0.83E-05    0.15E-04    0.45E-07
   2     10    11.539    18.158    0.10E-03    0.14E-03    0.24E-06
   0     11    11.539    15.740    0.19E-04    0.12E-05    0.17E-07
   0     11    11.539    47.662    0.48E-04    0.15E-04    0.31E-06
   1     10    11.539     5.777    0.11E-04    0.46E-05    0.25E-07
   1     10    11.539     8.007    0.46E-04    0.29E-04    0.11E-06
 Optimization of the real space projectors (new method)

 maximal supplied QI-value         = 19.84
 optimisation between [QCUT,QGAM] = [ 11.51, 23.22] = [ 37.09,150.92] Ry 
 Optimized for a Real-space Cutoff    1.21 Angstroem

   l    n(q)    QCUT    max X(q) W(low)/X(q) W(high)/X(q)  e(spline) 
   0      8    11.508     6.651    0.19E-04    0.31E-05    0.49E-08
   0      8    11.508    90.285    0.95E-04    0.17E-03    0.51E-07
   1      8    11.508     4.328    0.14E-04    0.32E-04    0.22E-07
   1      8    11.508    54.583    0.16E-03    0.71E-04    0.89E-07
 Optimization of the real space projectors (new method)

 maximal supplied QI-value         = 16.25
 optimisation between [QCUT,QGAM] = [ 11.54, 23.24] = [ 37.28,151.24] Ry 
 Optimized for a Real-space Cutoff    1.36 Angstroem

   l    n(q)    QCUT    max X(q) W(low)/X(q) W(high)/X(q)  e(spline) 
   0      9    11.539     7.090    0.13E-04    0.25E-05    0.51E-08
   0      9    11.539   101.654    0.53E-04    0.69E-04    0.12E-06
   1      9    11.539     5.276    0.20E-04    0.98E-05    0.24E-07
   1      9    11.539    81.891    0.24E-03    0.13E-04    0.15E-06
   2      9    11.539     5.599    0.30E-04    0.97E-04    0.54E-07

 ----------------------------------------------------------------------------- 
|                                                                             |
|  ADVICE TO THIS USER RUNNING 'VASP/VAMP'   (HEAR YOUR MASTER'S VOICE ...):  |
|                                                                             |
|      You enforced a specific xc-type in the INCAR file,                     |
|      a different type was found on the POTCAR file                          |
|          I HOPE YOU KNOW, WHAT YOU ARE  DOING                               |
|                                                                             |
 ----------------------------------------------------------------------------- 

 PAW_PBE Co 06Sep2000                   :
 energy of atom  1       EATOM= -813.5563
 kinetic energy error for atom=    0.0028 (will be added to EATOM!!)
  PAW_PBE P 17Jan2003                   :
 energy of atom  2       EATOM= -176.0430
 kinetic energy error for atom=    0.0011 (will be added to EATOM!!)
 PAW_PBE Te 08Apr2002                   :
 energy of atom  3       EATOM= -223.2721
 kinetic energy error for atom=    0.0007 (will be added to EATOM!!)


 POSCAR: Co2 P2 Te6                              
  positions in direct lattice
  No initial velocities read in
 exchange correlation table for  LEXCH =       42
   RHO(1)=    0.500       N(1)  =     2000
   RHO(2)=  100.500       N(2)  =     4000



--------------------------------------------------------------------------------------------------------


 ion  position               nearest neighbor table
   1  0.333  0.333  0.500-   6 2.78   5 2.78   7 2.78   8 2.78  10 2.78   9 2.78
   2  0.667  0.667  0.500-   9 2.78   8 2.78  10 2.78   5 2.78   7 2.78   6 2.78
   3  0.000  0.000  0.448-   4 2.43   8 2.63  10 2.63   9 2.63
   4  0.000  0.000  0.552-   3 2.43   5 2.63   7 2.63   6 2.63
   5  0.626  0.000  0.574-   4 2.63   1 2.78   2 2.78
   6  0.000  0.373  0.574-   4 2.63   1 2.78   2 2.78
   7  0.373  0.626  0.574-   4 2.63   1 2.78   2 2.78
   8  0.374  1.000  0.426-   3 2.63   2 2.78   1 2.78
   9  1.000  0.627  0.426-   3 2.63   2 2.78   1 2.78
  10  0.627  0.374  0.426-   3 2.63   2 2.78   1 2.78

  LATTYP: Found a hexagonal cell.
 ALAT       =     6.9077769333
 C/A-ratio  =     3.3939410937
  
  Lattice vectors:
  
 A1 = (   3.4538890000,  -5.9823100000,   0.0000000000)
 A2 = (  -6.9077770000,   0.0000000000,   0.0000000000)
 A3 = (   0.0000000000,   0.0000000000, -23.4445880000)


Analysis of symmetry for initial positions (statically):
=====================================================================
 Subroutine PRICEL returns:
 Original cell was already a primitive cell.
 

 Routine SETGRP: Setting up the symmetry group for a 
 hexagonal supercell.


 Subroutine GETGRP returns: Found  6 space group operations
 (whereof  6 operations were pure point group operations)
 out of a pool of 24 trial point group operations.


The static configuration has the point symmetry S_6 .


Analysis of symmetry for dynamics (positions and initial velocities):
=====================================================================
 Subroutine PRICEL returns:
 Original cell was already a primitive cell.
 

 Routine SETGRP: Setting up the symmetry group for a 
 hexagonal supercell.


 Subroutine GETGRP returns: Found  6 space group operations
 (whereof  6 operations were pure point group operations)
 out of a pool of 24 trial point group operations.


The dynamic configuration has the point symmetry S_6 .


Analysis of constrained symmetry for selective dynamics:
=====================================================================
 Subroutine PRICEL returns:
 Original cell was already a primitive cell.
 

 Routine SETGRP: Setting up the symmetry group for a 
 hexagonal supercell.


 Subroutine GETGRP returns: Found  6 space group operations
 (whereof  6 operations were pure point group operations)
 out of a pool of 24 trial point group operations.


The constrained configuration has the point symmetry S_6 .


Analysis of structural, dynamic, and magnetic symmetry:
=====================================================================
 Subroutine PRICEL returns:
 Original cell was already a primitive cell.
 

 Routine SETGRP: Setting up the symmetry group for a 
 hexagonal supercell.


 Subroutine GETGRP returns: Found  6 space group operations
 (whereof  6 operations were pure point group operations)
 out of a pool of 24 trial point group operations.


The magnetic configuration has the point symmetry S_6 .


 Subroutine INISYM returns: Found  6 space group operations
 (whereof  6 operations are pure point group operations),
 and found     1 'primitive' translations



 KPOINTS: Kpoints from vasprun.xml                

Automatic generation of k-mesh.
Space group operators:
 irot       det(A)        alpha          n_x          n_y          n_z        tau_x        tau_y        tau_z
    1     1.000000     0.000000     1.000000     0.000000     0.000000     0.000000     0.000000     0.000000
    2    -1.000000     0.000000     1.000000     0.000000     0.000000     0.000000     0.000000     0.000000
    3     1.000000   120.000000     0.000000     0.000000     1.000000     0.000000     0.000000     0.000000
    4    -1.000000   120.000000     0.000000     0.000000     1.000000     0.000000     0.000000     0.000000
    5     1.000000   120.000000     0.000000     0.000000    -1.000000     0.000000     0.000000     0.000000
    6    -1.000000   120.000000     0.000000     0.000000    -1.000000     0.000000     0.000000     0.000000
 
 Subroutine IBZKPT returns following result:
 ===========================================
 
 Found      5 irreducible k-points:
 
 Following reciprocal coordinates:
            Coordinates               Weight
  0.000000  0.000000  0.000000      1.000000
  0.200000  0.000000  0.000000      6.000000
  0.400000  0.000000  0.000000      6.000000
  0.400000  0.200000  0.000000      6.000000
 -0.400000  0.200000  0.000000      6.000000
 
 Following cartesian coordinates:
            Coordinates               Weight
  0.000000  0.000000  0.000000      1.000000
  0.028953 -0.016716  0.000000      6.000000
  0.057906 -0.033432  0.000000      6.000000
  0.057906  0.000000  0.000000      6.000000
 -0.057906  0.066864  0.000000      6.000000
 
 TETIRR: Found     15 inequivalent tetrahedra from      150


--------------------------------------------------------------------------------------------------------




 Dimension of arrays:
   k-points           NKPTS =      5   k-points in BZ     NKDIM =      5   number of bands    NBANDS=     48
   number of dos      NEDOS =    301   number of ions     NIONS =     10
   non local maximal  LDIM  =      6   non local SUM 2l+1 LMDIM =     18
   total plane-waves  NPLWV = 524880
   max r-space proj   IRMAX =   8238   max aug-charges    IRDMAX=  31706
   dimension x,y,z NGX =    54 NGY =   54 NGZ =  180
   dimension x,y,z NGXF=   108 NGYF=  108 NGZF=  360
   support grid    NGXF=   108 NGYF=  108 NGZF=  360
   ions per type =               2   2   6
   NGX,Y,Z   is equivalent  to a cutoff of  13.00, 13.00, 12.76 a.u.
   NGXF,Y,Z  is equivalent  to a cutoff of  25.99, 25.99, 25.53 a.u.

 SYSTEM =  unknown system                          
 POSCAR =  Co2 P2 Te6                              

 Startparameter for this run:
   NWRITE =      2    write-flag & timer
   PREC   = accura    normal or accurate (medium, high low for compatibility)
   ISTART =      0    job   : 0-new  1-cont  2-samecut
   ICHARG =      2    charge: 1-file 2-atom 10-const
   ISPIN  =      2    spin polarized calculation?
   LNONCOLLINEAR =      F non collinear calculations
   LSORBIT =      F    spin-orbit coupling
   INIWAV =      1    electr: 0-lowe 1-rand  2-diag
   LASPH  =      F    aspherical Exc in radial PAW
   METAGGA=      F    non-selfconsistent MetaGGA calc.

 Electronic Relaxation 1
   ENCUT  =  520.0 eV  38.22 Ry    6.18 a.u.  12.84 12.84 43.59*2*pi/ulx,y,z
   ENINI  =  520.0     initial cutoff
   ENAUG  =  477.8 eV  augmentation charge cutoff
   NELM   =    400;   NELMIN=  2; NELMDL=  0     # of ELM steps 
   EDIFF  = 0.1E-03   stopping-criterion for ELM
   LREAL  =      T    real-space projection
   NLSPLINE    = F    spline interpolate recip. space projectors
   LCOMPAT=      F    compatible to vasp.4.4
   GGA_COMPAT  = T    GGA compatible to vasp.4.4-vasp.4.6
   LMAXPAW     = -100 max onsite density
   LMAXMIX     =    2 max onsite mixed and CHGCAR
   VOSKOWN=      0    Vosko Wilk Nusair interpolation
   ROPT   =   -0.00025  -0.00025  -0.00025
 Ionic relaxation
   EDIFFG = 0.1E-02   stopping-criterion for IOM
   NSW    =     99    number of steps for IOM
   NBLOCK =      1;   KBLOCK =     99    inner block; outer block 
   IBRION =      2    ionic relax: 0-MD 1-quasi-New 2-CG
   NFREE  =      1    steps in history (QN), initial steepest desc. (CG)
   ISIF   =      3    stress and relaxation
   IWAVPR =     11    prediction:  0-non 1-charg 2-wave 3-comb
   ISYM   =      2    0-nonsym 1-usesym 2-fastsym
   LCORR  =      T    Harris-Foulkes like correction to forces

   POTIM  = 0.5000    time-step for ionic-motion
   TEIN   =    0.0    initial temperature
   TEBEG  =    0.0;   TEEND  =   0.0 temperature during run
   SMASS  =  -3.00    Nose mass-parameter (am)
   estimated Nose-frequenzy (Omega)   =  0.10E-29 period in steps =****** mass=  -0.109E-26a.u.
   SCALEE = 1.0000    scale energy and forces
   NPACO  =    256;   APACO  = 16.0  distance and # of slots for P.C.
   PSTRESS=    0.0 pullay stress

  Mass of Ions in am
   POMASS =  58.93 30.97127.60
  Ionic Valenz
   ZVAL   =   9.00  5.00  6.00
  Atomic Wigner-Seitz radii
   RWIGS  =  -1.00 -1.00 -1.00
  virtual crystal weights 
   VCA    =   1.00  1.00  1.00
   NELECT =      64.0000    total number of electrons
   NUPDOWN=      -1.0000    fix difference up-down

 DOS related values:
   EMIN   =  10.00;   EMAX   =-10.00  energy-range for DOS
   EFERMI =   0.00
   ISMEAR =    -5;   SIGMA  =   0.05  broadening in eV -4-tet -1-fermi 0-gaus

 Electronic relaxation 2 (details)
   IALGO  =     38    algorithm
   LDIAG  =      T    sub-space diagonalisation (order eigenvalues)
   LSUBROT=      F    optimize rotation matrix (better conditioning)
   TURBO    =      0    0=normal 1=particle mesh
   IRESTART =      0    0=no restart 2=restart with 2 vectors
   NREBOOT  =      0    no. of reboots
   NMIN     =      0    reboot dimension
   EREF     =   0.00    reference energy to select bands
   IMIX   =      4    mixing-type and parameters
     AMIX     =   0.40;   BMIX     =  1.00
     AMIX_MAG =   1.60;   BMIX_MAG =  1.00
     AMIN     =   0.01
     WC   =   100.;   INIMIX=   1;  MIXPRE=   1;  MAXMIX= -45

 Intra band minimization:
   WEIMIN = 0.0010     energy-eigenvalue tresh-hold
   EBREAK =  0.52E-06  absolut break condition
   DEPER  =   0.30     relativ break condition  

   TIME   =   0.40     timestep for ELM

  volume/ion in A,a.u.               =      96.88       653.80
  Fermi-wavevector in a.u.,A,eV,Ry     =   0.661787  1.250596  5.958835  0.437962
  Thomas-Fermi vector in A             =   1.734655

 Write flags
   LWAVE        =      F    write WAVECAR
   LDOWNSAMPLE  =      F    k-point downsampling of WAVECAR
   LCHARG       =      T    write CHGCAR
   LVTOT        =      F    write LOCPOT, total local potential
   LVHAR        =      F    write LOCPOT, Hartree potential only
   LELF         =      F    write electronic localiz. function (ELF)
   LORBIT       =     11    0 simple, 1 ext, 2 COOP (PROOUT), +10 PAW based schemes


 Dipole corrections
   LMONO  =      F    monopole corrections only (constant potential shift)
   LDIPOL =      F    correct potential (dipole corrections)
   IDIPOL =      0    1-x, 2-y, 3-z, 4-all directions 
   EPSILON=  1.0000000 bulk dielectric constant

 Exchange correlation treatment:
   GGA     =    BO    GGA type
   LEXCH   =    42    internal setting for exchange type
   VOSKOWN=      0    Vosko Wilk Nusair interpolation
   LHFCALC =     F    Hartree Fock is set to
   LHFONE  =     F    Hartree Fock one center treatment
   AEXX    =    0.0000 exact exchange contribution

 vdW DFT:
   LUSE_VDW   =     T    switch on vdW DFT
   Zab_VDW    =-.8491    correlation parameter
   PARAM1     =0.1833
   PARAM2     =0.2200
   PARAM3     =0.0000
   -- rVV10 --
   BPARAM     = 6.3000
   CPARAM     = 0.0093

 Linear response parameters
   LEPSILON=     F    determine dielectric tensor
   LRPA    =     F    only Hartree local field effects (RPA)
   LNABLA  =     F    use nabla operator in PAW spheres
   LVEL    =     F    velocity operator in full k-point grid
   LINTERFAST=   F  fast interpolation
   KINTER  =     0    interpolate to denser k-point grid
   CSHIFT  =0.1000    complex shift for real part using Kramers Kronig
   OMEGAMAX=  -1.0    maximum frequency
   DEG_THRESHOLD= 0.2000000E-02 threshold for treating states as degnerate
   RTIME   =   -0.100 relaxation time in fs
  (WPLASMAI=    0.000 imaginary part of plasma frequency in eV, 0.658/RTIME)
   DFIELD  = 0.0000000 0.0000000 0.0000000 field for delta impulse in time

 Orbital magnetization related:
   ORBITALMAG=     F  switch on orbital magnetization
   LCHIMAG   =     F  perturbation theory with respect to B field
   DQ        =  0.001000  dq finite difference perturbation B field
   LLRAUG    =     F  two centre corrections for induced B field



--------------------------------------------------------------------------------------------------------


 conjugate gradient relaxation of ions
   using selective dynamics as specified on POSCAR
 charge density and potential will be updated during run
 spin polarized calculation
 Variant of blocked Davidson
 Davidson routine will perform the subspace rotation
 perform sub-space diagonalisation
    after iterative eigenvector-optimisation
 modified Broyden-mixing scheme, WC =      100.0
 initial mixing is a Kerker type mixing with AMIX =  0.4000 and BMIX =      1.0000
 Hartree-type preconditioning will be used
 using additional bands           16
 real space projection scheme for non local part
 use partial core corrections
 calculate Harris-corrections to forces   (improved forces if not selfconsistent)
 use gradient corrections 
 use of overlap-Matrix (Vanderbilt PP)
 Fermi weights with tetrahedron method with Bloechl corrections


--------------------------------------------------------------------------------------------------------


  energy-cutoff  :      520.00
  volume of cell :      968.84
      direct lattice vectors                 reciprocal lattice vectors
     6.907777000 -0.000000000  0.000000000     0.144764372 -0.083579742  0.000000000
     3.453888000  5.982310000  0.000000000     0.000000000  0.167159509 -0.000000000
     0.000000000  0.000000000 23.444588000    -0.000000000  0.000000000  0.042653767

  length of vectors
     6.907777000  6.907776433 23.444588000     0.167159495  0.167159509  0.042653767



 k-points in units of 2pi/SCALE and weight: Kpoints from vasprun.xml                
   0.00000000  0.00000000  0.00000000       0.040
   0.02895287 -0.01671595  0.00000000       0.240
   0.05790575 -0.03343190  0.00000000       0.240
   0.05790575  0.00000000  0.00000000       0.240
  -0.05790575  0.06686380  0.00000000       0.240

 k-points in reciprocal lattice and weights: Kpoints from vasprun.xml                
   0.00000000  0.00000000  0.00000000       0.040
   0.20000000  0.00000000  0.00000000       0.240
   0.40000000  0.00000000  0.00000000       0.240
   0.40000000  0.20000000  0.00000000       0.240
  -0.40000000  0.20000000  0.00000000       0.240

 position of ions in fractional coordinates (direct lattice) 
   0.33333300  0.33333300  0.49992500
   0.66666700  0.66666700  0.50007500
   0.00000000  0.00000000  0.44821600
   0.00000000  0.00000000  0.55178400
   0.62635700  0.00042000  0.57375200
   0.00042000  0.37322400  0.57375200
   0.37322400  0.62635700  0.57375200
   0.37364300  0.99958000  0.42624800
   0.99958000  0.62677600  0.42624800
   0.62677600  0.37364300  0.42624800

 position of ions in cartesian coordinates  (Angst):
   3.45388488  1.99410134 11.72053566
   6.90778012  3.98820866 11.72405234
   0.00000000  0.00000000 10.50823946
   0.00000000  0.00000000 12.93634854
   4.32818511  0.00251257 13.45137925
   1.29197516  2.23274167 13.45137925
   4.74151509  3.74706174 13.45137925
   6.03347989  5.97979743  9.99320875
   9.06968984  3.74956833  9.99320875
   5.62014991  2.23524826  9.99320875



--------------------------------------------------------------------------------------------------------


 k-point  1 :   0.0000 0.0000 0.0000  plane waves:   26073
 k-point  2 :   0.2000 0.0000 0.0000  plane waves:   26070
 k-point  3 :   0.4000 0.0000 0.0000  plane waves:   26086
 k-point  4 :   0.4000 0.2000 0.0000  plane waves:   26085
 k-point  5 :  -0.4000 0.2000 0.0000  plane waves:   26115

 maximum and minimum number of plane-waves per node :     26115    26070

 maximum number of plane-waves:     26115
 maximum index in each direction: 
   IXMAX=   13   IYMAX=   12   IZMAX=   43
   IXMIN=  -13   IYMIN=  -13   IZMIN=  -43


 serial   3D FFT for wavefunctions
 parallel 3D FFT for charge:
    minimum data exchange during FFTs selected (reduces bandwidth)


 total amount of memory used by VASP MPI-rank0   128591. kBytes
=======================================================================

   base      :      30000. kBytes
   nonlr-proj:       8281. kBytes
   fftplans  :      11247. kBytes
   grid      :      66142. kBytes
   one-center:        311. kBytes
   wavefun   :      12610. kBytes

     INWAV:  cpu time    0.0000: real time    0.0004
 Broyden mixing: mesh for mixing (old mesh)
   NGX = 25   NGY = 25   NGZ = 87
  (NGX  =108   NGY  =108   NGZ  =360)
  gives a total of  54375 points

 initial charge density was supplied:
 charge density of overlapping atoms calculated
 number of electron      64.0000000 magnetization       9.7800000
 keeping initial charge density in first step


--------------------------------------------------------------------------------------------------------


 Maximum index for non-local projection operator         7925
 Maximum index for augmentation-charges         2278 (set IRDMAX)


--------------------------------------------------------------------------------------------------------


 First call to EWALD:  gamma=   0.179
 Maximum number of real-space cells 4x 4x 1
 Maximum number of reciprocal cells 2x 2x 6

    FEWALD:  cpu time    0.0000: real time    0.0014


--------------------------------------- Iteration      1(   1)  ---------------------------------------


vdW kernel read from vdw_kernel.bindat
  0.0000  0.2424  0.5071  0.7962  1.1119  1.4567  1.8333  2.2446  2.6937  3.1842
  3.7199  4.3049  4.9438  5.6415  6.4036  7.2358  8.1446  9.1372 10.2212 11.4050
 12.6979 14.1099 15.6519 17.3360 19.1751 21.1837 23.3773 25.7729 28.3892 31.2465
 34.3669 37.7748 41.4965 45.5611 50.0000

    POTLOK:  cpu time   53.0320: real time   53.1179
    SETDIJ:  cpu time    0.0480: real time    0.0490
     EDDAV:  cpu time   22.6640: real time   23.2125
 BZINTS: Fermi energy:  5.701449; 63.982010 electrons
         Band energy:  24.461897;  BLOECHL correction: -0.032084
       DOS:  cpu time    0.0040: real time    0.0063
    --------------------------------------------
      LOOP:  cpu time   75.7480: real time   76.3858

 eigenvalue-minimisations  :   960
 total energy-change (2. order) : 0.4104536E+03  (-0.1932019E+04)
 number of electron      64.0000000 magnetization       9.7800000
 augmentation part       64.0000000 magnetization       9.7800000

 Free energy of the ion-electron system (eV)
  ---------------------------------------------------
  alpha Z        PSCENC =        17.51294377
  Ewald energy   TEWEN  =      8063.44724659
  -Hartree energ DENC   =    -11044.05966934
  -exchange      EXHF   =         0.00000000
  -V(xc)+E(xc)   XCENC  =      -137.35380602
  PAW double counting   =      1991.30471305    -1838.27805955
  entropy T*S    EENTRO =         0.00000000
  eigenvalues    EBANDS =        24.46189750
  atomic energy  EATOM  =      3333.41834461
  Solvation  Ediel_sol  =         0.00000000
  ---------------------------------------------------
  free energy    TOTEN  =       410.45361060 eV

  energy without entropy =      410.45361060  energy(sigma->0) =      410.45361060


--------------------------------------------------------------------------------------------------------




--------------------------------------- Iteration      1(   2)  ---------------------------------------


     EDDAV:  cpu time   30.9480: real time   31.2943
 BZINTS: Fermi energy: -0.875661; 64.000000 electrons
         Band energy:-373.092423;  BLOECHL correction: -0.003510
       DOS:  cpu time    0.0080: real time    0.0063
    --------------------------------------------
      LOOP:  cpu time   30.9560: real time   31.3006

 eigenvalue-minimisations  :  1344
 total energy-change (2. order) :-0.3975543E+03  (-0.3737892E+03)
 number of electron      64.0000000 magnetization       9.7800000
 augmentation part       64.0000000 magnetization       9.7800000

 Free energy of the ion-electron system (eV)
  ---------------------------------------------------
  alpha Z        PSCENC =        17.51294377
  Ewald energy   TEWEN  =      8063.44724659
  -Hartree energ DENC   =    -11044.05966934
  -exchange      EXHF   =         0.00000000
  -V(xc)+E(xc)   XCENC  =      -137.35380602
  PAW double counting   =      1991.30471305    -1838.27805955
  entropy T*S    EENTRO =         0.00000000
  eigenvalues    EBANDS =      -373.09242308
  atomic energy  EATOM  =      3333.41834461
  Solvation  Ediel_sol  =         0.00000000
  ---------------------------------------------------
  free energy    TOTEN  =        12.89929002 eV

  energy without entropy =       12.89929002  energy(sigma->0) =       12.89929002


--------------------------------------------------------------------------------------------------------




--------------------------------------- Iteration      1(   3)  ---------------------------------------


     EDDAV:  cpu time   28.9560: real time   30.1694
 BZINTS: Fermi energy: -1.509683; 64.000000 electrons
         Band energy:-421.036600;  BLOECHL correction: -0.013868
       DOS:  cpu time    0.0040: real time    0.0155
    --------------------------------------------
      LOOP:  cpu time   28.9600: real time   30.1849

 eigenvalue-minimisations  :  1280
 total energy-change (2. order) :-0.4794418E+02  (-0.4655264E+02)
 number of electron      64.0000000 magnetization       9.7800000
 augmentation part       64.0000000 magnetization       9.7800000

 Free energy of the ion-electron system (eV)
  ---------------------------------------------------
  alpha Z        PSCENC =        17.51294377
  Ewald energy   TEWEN  =      8063.44724659
  -Hartree energ DENC   =    -11044.05966934
  -exchange      EXHF   =         0.00000000
  -V(xc)+E(xc)   XCENC  =      -137.35380602
  PAW double counting   =      1991.30471305    -1838.27805955
  entropy T*S    EENTRO =         0.00000000
  eigenvalues    EBANDS =      -421.03659982
  atomic energy  EATOM  =      3333.41834461
  Solvation  Ediel_sol  =         0.00000000
  ---------------------------------------------------
  free energy    TOTEN  =       -35.04488672 eV

  energy without entropy =      -35.04488672  energy(sigma->0) =      -35.04488672


--------------------------------------------------------------------------------------------------------




--------------------------------------- Iteration      1(   4)  ---------------------------------------


     EDDAV:  cpu time   26.9880: real time   28.5752
 BZINTS: Fermi energy: -1.532444; 64.000000 electrons
         Band energy:-422.972677;  BLOECHL correction: -0.012863
       DOS:  cpu time    0.0080: real time    0.0049
    --------------------------------------------
      LOOP:  cpu time   26.9960: real time   28.5801

 eigenvalue-minimisations  :  1216
 total energy-change (2. order) :-0.1936077E+01  (-0.1924785E+01)
 number of electron      64.0000000 magnetization       9.7800000
 augmentation part       64.0000000 magnetization       9.7800000

 Free energy of the ion-electron system (eV)
  ---------------------------------------------------
  alpha Z        PSCENC =        17.51294377
  Ewald energy   TEWEN  =      8063.44724659
  -Hartree energ DENC   =    -11044.05966934
  -exchange      EXHF   =         0.00000000
  -V(xc)+E(xc)   XCENC  =      -137.35380602
  PAW double counting   =      1991.30471305    -1838.27805955
  entropy T*S    EENTRO =         0.00000000
  eigenvalues    EBANDS =      -422.97267699
  atomic energy  EATOM  =      3333.41834461
  Solvation  Ediel_sol  =         0.00000000
  ---------------------------------------------------
  free energy    TOTEN  =       -36.98096389 eV

  energy without entropy =      -36.98096389  energy(sigma->0) =      -36.98096389


--------------------------------------------------------------------------------------------------------




--------------------------------------- Iteration      1(   5)  ---------------------------------------


     EDDAV:  cpu time   32.7200: real time   33.5953
 BZINTS: Fermi energy: -1.533132; 64.000000 electrons
         Band energy:-423.027748;  BLOECHL correction: -0.012843
       DOS:  cpu time    0.0040: real time    0.0055
    CHARGE:  cpu time    2.1720: real time    2.1839
    MIXING:  cpu time    0.0400: real time    0.0398
    --------------------------------------------
      LOOP:  cpu time   34.9360: real time   35.8246

 eigenvalue-minimisations  :  1456
 total energy-change (2. order) :-0.5507097E-01  (-0.5510389E-01)
 number of electron      63.9999992 magnetization       9.4035549
 augmentation part       -0.4502136 magnetization       7.1566537

 Broyden mixing:
  rms(total) = 0.19235E+01    rms(broyden)= 0.19235E+01
  rms(prec ) = 0.20783E+01
  weight for this iteration     100.00

 Free energy of the ion-electron system (eV)
  ---------------------------------------------------
  alpha Z        PSCENC =        17.51294377
  Ewald energy   TEWEN  =      8063.44724659
  -Hartree energ DENC   =    -11044.05966934
  -exchange      EXHF   =         0.00000000
  -V(xc)+E(xc)   XCENC  =      -137.35380602
  PAW double counting   =      1991.30471305    -1838.27805955
  entropy T*S    EENTRO =         0.00000000
  eigenvalues    EBANDS =      -423.02774796
  atomic energy  EATOM  =      3333.41834461
  Solvation  Ediel_sol  =         0.00000000
  ---------------------------------------------------
  free energy    TOTEN  =       -37.03603486 eV

  energy without entropy =      -37.03603486  energy(sigma->0) =      -37.03603486


--------------------------------------------------------------------------------------------------------




--------------------------------------- Iteration      1(   6)  ---------------------------------------


    POTLOK:  cpu time   52.7560: real time   52.8397
    SETDIJ:  cpu time    0.0520: real time    0.0509
     EDDAV:  cpu time   27.2200: real time   27.3066
 BZINTS: Fermi energy: -2.981337; 64.000000 electrons
         Band energy:-570.021685;  BLOECHL correction: -0.071147
       DOS:  cpu time    0.0080: real time    0.0070
    CHARGE:  cpu time    2.1720: real time    2.1919
    MIXING:  cpu time    0.0400: real time    0.0423
    --------------------------------------------
      LOOP:  cpu time   82.2480: real time   82.4384

 eigenvalue-minimisations  :  1152
 total energy-change (2. order) :-0.3202773E+02  (-0.2613339E+02)
 number of electron      63.9999986 magnetization       9.1457287
 augmentation part        7.3340858 magnetization       8.1099535

 Broyden mixing:
  rms(total) = 0.45396E+01    rms(broyden)= 0.45395E+01
  rms(prec ) = 0.48356E+01
  weight for this iteration     100.00

 eigenvalues of (default mixing * dielectric matrix)
  average eigenvalue GAMMA=   0.2526
  0.2526

 Free energy of the ion-electron system (eV)
  ---------------------------------------------------
  alpha Z        PSCENC =        17.51294377
  Ewald energy   TEWEN  =      8063.44724659
  -Hartree energ DENC   =    -10949.13722600
  -exchange      EXHF   =         0.00000000
  -V(xc)+E(xc)   XCENC  =      -138.65522760
  PAW double counting   =      1850.55718501    -1676.18534302
  entropy T*S    EENTRO =         0.00000000
  eigenvalues    EBANDS =      -570.02168456
  atomic energy  EATOM  =      3333.41834461
  Solvation  Ediel_sol  =         0.00000000
  ---------------------------------------------------
  free energy    TOTEN  =       -69.06376120 eV

  energy without entropy =      -69.06376120  energy(sigma->0) =      -69.06376120


--------------------------------------------------------------------------------------------------------




--------------------------------------- Iteration      1(   7)  ---------------------------------------


    POTLOK:  cpu time   52.7640: real time   52.8599
    SETDIJ:  cpu time    0.0480: real time    0.0516
     EDDAV:  cpu time   26.0560: real time   26.1742
 BZINTS: Fermi energy: -2.716825; 64.000000 electrons
         Band energy:-462.085959;  BLOECHL correction: -0.022212
       DOS:  cpu time    0.0080: real time    0.0068
    CHARGE:  cpu time    2.1400: real time    2.1416
    MIXING:  cpu time    0.0440: real time    0.0451
    --------------------------------------------
      LOOP:  cpu time   81.0600: real time   81.2793

 eigenvalue-minimisations  :  1104
 total energy-change (2. order) : 0.3026250E+02  (-0.4063444E+01)
 number of electron      63.9999988 magnetization       8.8165994
 augmentation part        5.0127240 magnetization       7.6363388

 Broyden mixing:
  rms(total) = 0.21497E+01    rms(broyden)= 0.21497E+01
  rms(prec ) = 0.23221E+01
  weight for this iteration     100.00

 eigenvalues of (default mixing * dielectric matrix)
  average eigenvalue GAMMA=   0.5040
  0.5040  0.5040

 Free energy of the ion-electron system (eV)
  ---------------------------------------------------
  alpha Z        PSCENC =        17.51294377
  Ewald energy   TEWEN  =      8063.44724659
  -Hartree energ DENC   =    -11009.38195910
  -exchange      EXHF   =         0.00000000
  -V(xc)+E(xc)   XCENC  =      -138.52335170
  PAW double counting   =      1961.92534159    -1805.11386804
  entropy T*S    EENTRO =         0.00000000
  eigenvalues    EBANDS =      -462.08595868
  atomic energy  EATOM  =      3333.41834461
  Solvation  Ediel_sol  =         0.00000000
  ---------------------------------------------------
  free energy    TOTEN  =       -38.80126096 eV

  energy without entropy =      -38.80126096  energy(sigma->0) =      -38.80126096


--------------------------------------------------------------------------------------------------------




--------------------------------------- Iteration      1(   8)  ---------------------------------------


    POTLOK:  cpu time   52.2800: real time   52.5980
    SETDIJ:  cpu time    0.0400: real time    0.0403
     EDDAV:  cpu time   33.7840: real time   34.5112
 BZINTS: Fermi energy: -2.239612; 64.000000 electrons
         Band energy:-428.442871;  BLOECHL correction: -0.022850
       DOS:  cpu time    0.0040: real time    0.0070
    CHARGE:  cpu time    2.1240: real time    2.1249
    MIXING:  cpu time    0.0440: real time    0.0449
    --------------------------------------------
      LOOP:  cpu time   88.2760: real time   89.3263

 eigenvalue-minimisations  :  1504
 total energy-change (2. order) : 0.3905846E+01  (-0.1148288E+01)
 number of electron      63.9999991 magnetization       9.1666880
 augmentation part        2.4992055 magnetization       8.6235780

 Broyden mixing:
  rms(total) = 0.78994E+00    rms(broyden)= 0.78983E+00
  rms(prec ) = 0.79992E+00
  weight for this iteration     100.00

 eigenvalues of (default mixing * dielectric matrix)
  average eigenvalue GAMMA=   0.3905
  0.4672  0.4672  0.2371

 Free energy of the ion-electron system (eV)
  ---------------------------------------------------
  alpha Z        PSCENC =        17.51294377
  Ewald energy   TEWEN  =      8063.44724659
  -Hartree energ DENC   =    -11036.02046515
  -exchange      EXHF   =         0.00000000
  -V(xc)+E(xc)   XCENC  =      -138.12765518
  PAW double counting   =      2016.52860580    -1863.21156468
  entropy T*S    EENTRO =         0.00000000
  eigenvalues    EBANDS =      -428.44287057
  atomic energy  EATOM  =      3333.41834461
  Solvation  Ediel_sol  =         0.00000000
  ---------------------------------------------------
  free energy    TOTEN  =       -34.89541481 eV

  energy without entropy =      -34.89541481  energy(sigma->0) =      -34.89541481


--------------------------------------------------------------------------------------------------------




--------------------------------------- Iteration      1(   9)  ---------------------------------------


    POTLOK:  cpu time   51.9160: real time   51.9773
    SETDIJ:  cpu time    0.0520: real time    0.0512
     EDDAV:  cpu time   27.4040: real time   27.5293
 BZINTS: Fermi energy: -2.337332; 64.000000 electrons
         Band energy:-433.060499;  BLOECHL correction: -0.008158
       DOS:  cpu time    0.0080: real time    0.0072
    CHARGE:  cpu time    2.1320: real time    2.1357
    MIXING:  cpu time    0.0640: real time    0.0641
    --------------------------------------------
      LOOP:  cpu time   81.5760: real time   81.7648

 eigenvalue-minimisations  :  1184
 total energy-change (2. order) :-0.1714694E+00  (-0.1740984E+00)
 number of electron      63.9999990 magnetization       9.1414490
 augmentation part        2.5527572 magnetization       8.0274443

 Broyden mixing:
  rms(total) = 0.74836E+00    rms(broyden)= 0.74833E+00
  rms(prec ) = 0.76837E+00
  weight for this iteration     100.00

 eigenvalues of (default mixing * dielectric matrix)
  average eigenvalue GAMMA=   0.3628
  0.4637  0.4637  0.2618  0.2618

 Free energy of the ion-electron system (eV)
  ---------------------------------------------------
  alpha Z        PSCENC =        17.51294377
  Ewald energy   TEWEN  =      8063.44724659
  -Hartree energ DENC   =    -11031.37117915
  -exchange      EXHF   =         0.00000000
  -V(xc)+E(xc)   XCENC  =      -137.91622060
  PAW double counting   =      2002.05640145    -1849.15392151
  entropy T*S    EENTRO =         0.00000000
  eigenvalues    EBANDS =      -433.06049943
  atomic energy  EATOM  =      3333.41834461
  Solvation  Ediel_sol  =         0.00000000
  ---------------------------------------------------
  free energy    TOTEN  =       -35.06688426 eV

  energy without entropy =      -35.06688426  energy(sigma->0) =      -35.06688426


--------------------------------------------------------------------------------------------------------




--------------------------------------- Iteration      1(  10)  ---------------------------------------


    POTLOK:  cpu time   50.1400: real time   51.1401
    SETDIJ:  cpu time    0.0520: real time    0.0513
     EDDAV:  cpu time   26.2360: real time   26.6513
 BZINTS: Fermi energy: -2.353971; 64.000000 electrons
         Band energy:-433.097095;  BLOECHL correction: -0.018425
       DOS:  cpu time    0.0040: real time    0.0071
    CHARGE:  cpu time    2.1120: real time    2.1369
    MIXING:  cpu time    0.0400: real time    0.0432
    --------------------------------------------
      LOOP:  cpu time   78.5840: real time   80.0300

 eigenvalue-minimisations  :  1136
 total energy-change (2. order) :-0.2891682E-01  (-0.5258217E-02)
 number of electron      63.9999990 magnetization       8.4433663
 augmentation part        2.6254999 magnetization       7.6092638

 Broyden mixing:
  rms(total) = 0.86258E+00    rms(broyden)= 0.86258E+00
  rms(prec ) = 0.88422E+00
  weight for this iteration     100.00

 eigenvalues of (default mixing * dielectric matrix)
  average eigenvalue GAMMA=   0.5559
  0.7114  0.7114  0.4460  0.4460  0.4648

 Free energy of the ion-electron system (eV)
  ---------------------------------------------------
  alpha Z        PSCENC =        17.51294377
  Ewald energy   TEWEN  =      8063.44724659
  -Hartree energ DENC   =    -11031.47224027
  -exchange      EXHF   =         0.00000000
  -V(xc)+E(xc)   XCENC  =      -137.94204632
  PAW double counting   =      2002.30477270    -1849.26772724
  entropy T*S    EENTRO =         0.00000000
  eigenvalues    EBANDS =      -433.09709492
  atomic energy  EATOM  =      3333.41834461
  Solvation  Ediel_sol  =         0.00000000
  ---------------------------------------------------
  free energy    TOTEN  =       -35.09580108 eV

  energy without entropy =      -35.09580108  energy(sigma->0) =      -35.09580108


--------------------------------------------------------------------------------------------------------




--------------------------------------- Iteration      1(  11)  ---------------------------------------


    POTLOK:  cpu time   50.9440: real time   51.2188
    SETDIJ:  cpu time    0.0480: real time    0.0482
     EDDAV:  cpu time   27.3760: real time   27.7269
 BZINTS: Fermi energy: -2.449876; 64.000000 electrons
         Band energy:-437.187892;  BLOECHL correction: -0.020801
       DOS:  cpu time    0.0080: real time    0.0068
    CHARGE:  cpu time    2.0560: real time    2.1610
    MIXING:  cpu time    0.0480: real time    0.0479
    --------------------------------------------
      LOOP:  cpu time   80.4800: real time   81.2096

 eigenvalue-minimisations  :  1184
 total energy-change (2. order) :-0.4287914E+00  (-0.5593593E-01)
 number of electron      63.9999990 magnetization       7.8871128
 augmentation part        3.2217370 magnetization       7.3026774

 Broyden mixing:
  rms(total) = 0.11106E+01    rms(broyden)= 0.11106E+01
  rms(prec ) = 0.11606E+01
  weight for this iteration     100.00

 eigenvalues of (default mixing * dielectric matrix)
  average eigenvalue GAMMA=   0.6924
  1.5108  0.6233  0.4432  0.4432  0.7001  0.4337

 Free energy of the ion-electron system (eV)
  ---------------------------------------------------
  alpha Z        PSCENC =        17.51294377
  Ewald energy   TEWEN  =      8063.44724659
  -Hartree energ DENC   =    -11028.18677275
  -exchange      EXHF   =         0.00000000
  -V(xc)+E(xc)   XCENC  =      -138.18736460
  PAW double counting   =      2012.37339100    -1858.71448921
  entropy T*S    EENTRO =         0.00000000
  eigenvalues    EBANDS =      -437.18789188
  atomic energy  EATOM  =      3333.41834461
  Solvation  Ediel_sol  =         0.00000000
  ---------------------------------------------------
  free energy    TOTEN  =       -35.52459247 eV

  energy without entropy =      -35.52459247  energy(sigma->0) =      -35.52459247


--------------------------------------------------------------------------------------------------------




--------------------------------------- Iteration      1(  12)  ---------------------------------------


    POTLOK:  cpu time   51.2880: real time   51.4642
    SETDIJ:  cpu time    0.0480: real time    0.0497
     EDDAV:  cpu time   27.3920: real time   28.2106
 BZINTS: Fermi energy: -2.407095; 64.000000 electrons
         Band energy:-433.718422;  BLOECHL correction: -0.022082
       DOS:  cpu time    0.0040: real time    0.0073
    CHARGE:  cpu time    2.1880: real time    2.2039
    MIXING:  cpu time    0.0440: real time    0.0439
    --------------------------------------------
      LOOP:  cpu time   80.9640: real time   81.9796

 eigenvalue-minimisations  :  1216
 total energy-change (2. order) : 0.2838929E-01  (-0.3284289E-01)
 number of electron      63.9999990 magnetization       7.9396682
 augmentation part        3.1484051 magnetization       7.5567110

 Broyden mixing:
  rms(total) = 0.11206E+01    rms(broyden)= 0.11206E+01
  rms(prec ) = 0.11585E+01
  weight for this iteration     100.00

 eigenvalues of (default mixing * dielectric matrix)
  average eigenvalue GAMMA=   0.8386
  2.0496  0.7297  0.8431  0.8431  0.4549  0.4549  0.4946

 Free energy of the ion-electron system (eV)
  ---------------------------------------------------
  alpha Z        PSCENC =        17.51294377
  Ewald energy   TEWEN  =      8063.44724659
  -Hartree energ DENC   =    -11031.26759043
  -exchange      EXHF   =         0.00000000
  -V(xc)+E(xc)   XCENC  =      -137.89980206
  PAW double counting   =      2027.51864456    -1874.50756860
  entropy T*S    EENTRO =         0.00000000
  eigenvalues    EBANDS =      -433.71842163
  atomic energy  EATOM  =      3333.41834461
  Solvation  Ediel_sol  =         0.00000000
  ---------------------------------------------------
  free energy    TOTEN  =       -35.49620318 eV

  energy without entropy =      -35.49620318  energy(sigma->0) =      -35.49620318


--------------------------------------------------------------------------------------------------------




--------------------------------------- Iteration      1(  13)  ---------------------------------------


    POTLOK:  cpu time   51.1080: real time   51.5006
    SETDIJ:  cpu time    0.0480: real time    0.0474
     EDDAV:  cpu time   31.8000: real time   32.0378
 BZINTS: Fermi energy: -2.025357; 64.000000 electrons
         Band energy:-428.696808;  BLOECHL correction: -0.017426
       DOS:  cpu time    0.0040: real time    0.0066
    CHARGE:  cpu time    2.1280: real time    2.1405
    MIXING:  cpu time    0.0600: real time    0.0638
    --------------------------------------------
      LOOP:  cpu time   85.1480: real time   85.7966

 eigenvalue-minimisations  :  1408
 total energy-change (2. order) : 0.5694911E+00  (-0.6552993E-01)
 number of electron      63.9999990 magnetization       8.0037829
 augmentation part        2.1355366 magnetization       6.3282747

 Broyden mixing:
  rms(total) = 0.68055E+00    rms(broyden)= 0.68022E+00
  rms(prec ) = 0.68160E+00
  weight for this iteration     100.00

 eigenvalues of (default mixing * dielectric matrix)
  average eigenvalue GAMMA=   0.8251
  2.2815  0.7501  0.8331  0.8331  0.4450  0.4450  0.5977  0.4153

 Free energy of the ion-electron system (eV)
  ---------------------------------------------------
  alpha Z        PSCENC =        17.51294377
  Ewald energy   TEWEN  =      8063.44724659
  -Hartree energ DENC   =    -11034.88991094
  -exchange      EXHF   =         0.00000000
  -V(xc)+E(xc)   XCENC  =      -136.63087756
  PAW double counting   =      2030.22619388    -1879.31384464
  entropy T*S    EENTRO =         0.00000000
  eigenvalues    EBANDS =      -428.69680784
  atomic energy  EATOM  =      3333.41834461
  Solvation  Ediel_sol  =         0.00000000
  ---------------------------------------------------
  free energy    TOTEN  =       -34.92671212 eV

  energy without entropy =      -34.92671212  energy(sigma->0) =      -34.92671212


--------------------------------------------------------------------------------------------------------




--------------------------------------- Iteration      1(  14)  ---------------------------------------


    POTLOK:  cpu time   50.9400: real time   51.2530
    SETDIJ:  cpu time    0.0480: real time    0.0479
     EDDAV:  cpu time   26.6880: real time   27.0649
 BZINTS: Fermi energy: -2.001284; 64.000000 electrons
         Band energy:-430.263811;  BLOECHL correction: -0.017244
       DOS:  cpu time    0.0040: real time    0.0073
    CHARGE:  cpu time    2.1120: real time    2.1485
    MIXING:  cpu time    0.0480: real time    0.0461
    --------------------------------------------
      LOOP:  cpu time   79.8400: real time   80.5678

 eigenvalue-minimisations  :  1152
 total energy-change (2. order) : 0.3269701E-01  (-0.1191659E-01)
 number of electron      63.9999990 magnetization       8.0254639
 augmentation part        2.0843027 magnetization       6.1392388

 Broyden mixing:
  rms(total) = 0.68208E+00    rms(broyden)= 0.68202E+00
  rms(prec ) = 0.68384E+00
  weight for this iteration     100.00

 eigenvalues of (default mixing * dielectric matrix)
  average eigenvalue GAMMA=   0.7342
  2.2822  0.7504  0.8311  0.8311  0.4446  0.4446  0.5962  0.4122  0.0153

 Free energy of the ion-electron system (eV)
  ---------------------------------------------------
  alpha Z        PSCENC =        17.51294377
  Ewald energy   TEWEN  =      8063.44724659
  -Hartree energ DENC   =    -11033.26384072
  -exchange      EXHF   =         0.00000000
  -V(xc)+E(xc)   XCENC  =      -136.47913561
  PAW double counting   =      2026.92528875    -1876.19105172
  entropy T*S    EENTRO =         0.00000000
  eigenvalues    EBANDS =      -430.26381078
  atomic energy  EATOM  =      3333.41834461
  Solvation  Ediel_sol  =         0.00000000
  ---------------------------------------------------
  free energy    TOTEN  =       -34.89401511 eV

  energy without entropy =      -34.89401511  energy(sigma->0) =      -34.89401511


--------------------------------------------------------------------------------------------------------




--------------------------------------- Iteration      1(  15)  ---------------------------------------


    POTLOK:  cpu time   51.2320: real time   51.5641
    SETDIJ:  cpu time    0.0480: real time    0.0483
     EDDAV:  cpu time   26.9120: real time   27.1187
 BZINTS: Fermi energy: -2.015449; 64.000000 electrons
         Band energy:-431.229797;  BLOECHL correction: -0.017750
       DOS:  cpu time    0.0040: real time    0.0052
    CHARGE:  cpu time    2.1640: real time    2.1753
    MIXING:  cpu time    0.0480: real time    0.0475
    --------------------------------------------
      LOOP:  cpu time   80.4080: real time   80.9590

 eigenvalue-minimisations  :  1168
 total energy-change (2. order) : 0.3248843E-02  (-0.3006293E-02)
 number of electron      63.9999990 magnetization       8.3216398
 augmentation part        2.1575444 magnetization       6.4167064

 Broyden mixing:
  rms(total) = 0.71117E+00    rms(broyden)= 0.71117E+00
  rms(prec ) = 0.71213E+00
  weight for this iteration     100.00

 eigenvalues of (default mixing * dielectric matrix)
  average eigenvalue GAMMA=   0.8985
  1.9874  0.7693  1.1719  1.1719  0.9301  0.9301  0.4545  0.4545  0.6500  0.4646

 Free energy of the ion-electron system (eV)
  ---------------------------------------------------
  alpha Z        PSCENC =        17.51294377
  Ewald energy   TEWEN  =      8063.44724659
  -Hartree energ DENC   =    -11032.27771045
  -exchange      EXHF   =         0.00000000
  -V(xc)+E(xc)   XCENC  =      -136.47611537
  PAW double counting   =      2025.48985501    -1874.77553347
  entropy T*S    EENTRO =         0.00000000
  eigenvalues    EBANDS =      -431.22979695
  atomic energy  EATOM  =      3333.41834461
  Solvation  Ediel_sol  =         0.00000000
  ---------------------------------------------------
  free energy    TOTEN  =       -34.89076626 eV

  energy without entropy =      -34.89076626  energy(sigma->0) =      -34.89076626


--------------------------------------------------------------------------------------------------------




--------------------------------------- Iteration      1(  16)  ---------------------------------------


    POTLOK:  cpu time   51.0800: real time   51.2175
    SETDIJ:  cpu time    0.0520: real time    0.0484
     EDDAV:  cpu time   23.7240: real time   24.0557
 BZINTS: Fermi energy: -2.081448; 64.000000 electrons
         Band energy:-437.011169;  BLOECHL correction: -0.020974
       DOS:  cpu time    0.0080: real time    0.0078
    CHARGE:  cpu time    2.0800: real time    2.1642
    MIXING:  cpu time    0.0640: real time    0.0633
    --------------------------------------------
      LOOP:  cpu time   77.0080: real time   77.5569

 eigenvalue-minimisations  :  1024
 total energy-change (2. order) : 0.2488556E+00  (-0.2194010E-01)
 number of electron      63.9999989 magnetization       8.6033892
 augmentation part        2.4372974 magnetization       6.5671529

 Broyden mixing:
  rms(total) = 0.94428E+00    rms(broyden)= 0.94427E+00
  rms(prec ) = 0.94931E+00
  weight for this iteration     100.00

 eigenvalues of (default mixing * dielectric matrix)
  average eigenvalue GAMMA=   0.9987
  2.1757  1.8148  1.8148  0.7722  0.8723  0.8723  0.4549  0.4549  0.6691  0.4917
  0.5933

 Free energy of the ion-electron system (eV)
  ---------------------------------------------------
  alpha Z        PSCENC =        17.51294377
  Ewald energy   TEWEN  =      8063.44724659
  -Hartree energ DENC   =    -11026.39072968
  -exchange      EXHF   =         0.00000000
  -V(xc)+E(xc)   XCENC  =      -136.12490375
  PAW double counting   =      2015.07544200    -1864.56908561
  entropy T*S    EENTRO =         0.00000000
  eigenvalues    EBANDS =      -437.01116862
  atomic energy  EATOM  =      3333.41834461
  Solvation  Ediel_sol  =         0.00000000
  ---------------------------------------------------
  free energy    TOTEN  =       -34.64191068 eV

  energy without entropy =      -34.64191068  energy(sigma->0) =      -34.64191068


--------------------------------------------------------------------------------------------------------




--------------------------------------- Iteration      1(  17)  ---------------------------------------


    POTLOK:  cpu time   50.7520: real time   51.1875
    SETDIJ:  cpu time    0.0480: real time    0.0479
     EDDAV:  cpu time   25.4960: real time   25.7386
 BZINTS: Fermi energy: -2.060405; 64.000000 electrons
         Band energy:-439.201466;  BLOECHL correction: -0.017446
       DOS:  cpu time    0.0040: real time    0.0066
    CHARGE:  cpu time    2.1600: real time    2.1626
    MIXING:  cpu time    0.0480: real time    0.0485
    --------------------------------------------
      LOOP:  cpu time   78.5080: real time   79.1916

 eigenvalue-minimisations  :  1104
 total energy-change (2. order) : 0.1851306E+00  (-0.1029716E-01)
 number of electron      63.9999989 magnetization       8.8011079
 augmentation part        2.3344442 magnetization       6.2959755

 Broyden mixing:
  rms(total) = 0.87862E+00    rms(broyden)= 0.87859E+00
  rms(prec ) = 0.88172E+00
  weight for this iteration     100.00

 eigenvalues of (default mixing * dielectric matrix)
  average eigenvalue GAMMA=   1.0539
  2.4795  2.4795  1.9970  0.7729  0.8259  0.8259  0.4559  0.4559  0.6752  0.4689
  0.6053  0.6053

 Free energy of the ion-electron system (eV)
  ---------------------------------------------------
  alpha Z        PSCENC =        17.51294377
  Ewald energy   TEWEN  =      8063.44724659
  -Hartree energ DENC   =    -11024.04687512
  -exchange      EXHF   =         0.00000000
  -V(xc)+E(xc)   XCENC  =      -135.85035718
  PAW double counting   =      2012.41613254    -1862.15274927
  entropy T*S    EENTRO =         0.00000000
  eigenvalues    EBANDS =      -439.20146606
  atomic energy  EATOM  =      3333.41834461
  Solvation  Ediel_sol  =         0.00000000
  ---------------------------------------------------
  free energy    TOTEN  =       -34.45678012 eV

  energy without entropy =      -34.45678012  energy(sigma->0) =      -34.45678012


--------------------------------------------------------------------------------------------------------




--------------------------------------- Iteration      1(  18)  ---------------------------------------


    POTLOK:  cpu time   50.9920: real time   51.2104
    SETDIJ:  cpu time    0.0480: real time    0.0494
     EDDAV:  cpu time   25.6080: real time   25.8304
 BZINTS: Fermi energy: -2.049441; 64.000000 electrons
         Band energy:-440.846456;  BLOECHL correction: -0.015839
       DOS:  cpu time    0.0040: real time    0.0049
    CHARGE:  cpu time    2.1320: real time    2.1328
    MIXING:  cpu time    0.0480: real time    0.0500
    --------------------------------------------
      LOOP:  cpu time   78.8320: real time   79.2779

 eigenvalue-minimisations  :  1104
 total energy-change (2. order) : 0.1185657E+00  (-0.2870610E-02)
 number of electron      63.9999989 magnetization       8.9744337
 augmentation part        2.3851816 magnetization       6.4010258

 Broyden mixing:
  rms(total) = 0.93998E+00    rms(broyden)= 0.93998E+00
  rms(prec ) = 0.94442E+00
  weight for this iteration     100.00

 eigenvalues of (default mixing * dielectric matrix)
  average eigenvalue GAMMA=   1.1048
  2.9953  2.9953  1.9786  0.7732  0.8508  0.8508  0.6676  0.6676  0.4548  0.4548
  0.6640  0.5048  0.5048

 Free energy of the ion-electron system (eV)
  ---------------------------------------------------
  alpha Z        PSCENC =        17.51294377
  Ewald energy   TEWEN  =      8063.44724659
  -Hartree energ DENC   =    -11022.39551458
  -exchange      EXHF   =         0.00000000
  -V(xc)+E(xc)   XCENC  =      -135.67077304
  PAW double counting   =      2010.08926908    -1859.89327529
  entropy T*S    EENTRO =         0.00000000
  eigenvalues    EBANDS =      -440.84645551
  atomic energy  EATOM  =      3333.41834461
  Solvation  Ediel_sol  =         0.00000000
  ---------------------------------------------------
  free energy    TOTEN  =       -34.33821437 eV

  energy without entropy =      -34.33821437  energy(sigma->0) =      -34.33821437


--------------------------------------------------------------------------------------------------------




--------------------------------------- Iteration      1(  19)  ---------------------------------------


    POTLOK:  cpu time   50.9680: real time   51.3682
    SETDIJ:  cpu time    0.0480: real time    0.0480
     EDDAV:  cpu time   28.5960: real time   28.9111
 BZINTS: Fermi energy: -2.068206; 64.000000 electrons
         Band energy:-441.657869;  BLOECHL correction: -0.016140
       DOS:  cpu time    0.0040: real time    0.0066
    CHARGE:  cpu time    2.0800: real time    2.1275
    MIXING:  cpu time    0.0880: real time    0.0884
    --------------------------------------------
      LOOP:  cpu time   81.7840: real time   82.5499

 eigenvalue-minimisations  :  1248
 total energy-change (2. order) : 0.4352017E-01  (-0.1290756E-02)
 number of electron      63.9999989 magnetization       8.6742377
 augmentation part        2.4316316 magnetization       6.0997461

 Broyden mixing:
  rms(total) = 0.10083E+01    rms(broyden)= 0.10083E+01
  rms(prec ) = 0.10139E+01
  weight for this iteration     100.00

 eigenvalues of (default mixing * dielectric matrix)
  average eigenvalue GAMMA=   1.0712
  2.6684  2.6684  2.0442  0.9994  0.7742  0.8611  0.8611  0.7350  0.7350  0.4551
  0.4551  0.6984  0.4813  0.5603

 Free energy of the ion-electron system (eV)
  ---------------------------------------------------
  alpha Z        PSCENC =        17.51294377
  Ewald energy   TEWEN  =      8063.44724659
  -Hartree energ DENC   =    -11021.58504567
  -exchange      EXHF   =         0.00000000
  -V(xc)+E(xc)   XCENC  =      -135.54168898
  PAW double counting   =      2008.95075031    -1858.83937549
  entropy T*S    EENTRO =         0.00000000
  eigenvalues    EBANDS =      -441.65786933
  atomic energy  EATOM  =      3333.41834461
  Solvation  Ediel_sol  =         0.00000000
  ---------------------------------------------------
  free energy    TOTEN  =       -34.29469419 eV

  energy without entropy =      -34.29469419  energy(sigma->0) =      -34.29469419


--------------------------------------------------------------------------------------------------------




--------------------------------------- Iteration      1(  20)  ---------------------------------------


    POTLOK:  cpu time   51.1640: real time   51.5073
    SETDIJ:  cpu time    0.0480: real time    0.0478
     EDDAV:  cpu time   22.4920: real time   22.7801
 BZINTS: Fermi energy: -2.066237; 64.000000 electrons
         Band energy:-440.620939;  BLOECHL correction: -0.016931
       DOS:  cpu time    0.0040: real time    0.0074
    CHARGE:  cpu time    2.1400: real time    2.1451
    MIXING:  cpu time    0.0560: real time    0.0579
    --------------------------------------------
      LOOP:  cpu time   75.9040: real time   76.5457

 eigenvalue-minimisations  :   960
 total energy-change (2. order) :-0.1201183E+00  (-0.9743760E-03)
 number of electron      63.9999989 magnetization       7.5519324
 augmentation part        2.4111189 magnetization       4.9981336

 Broyden mixing:
  rms(total) = 0.91843E+00    rms(broyden)= 0.91843E+00
  rms(prec ) = 0.92345E+00
  weight for this iteration     100.00

 eigenvalues of (default mixing * dielectric matrix)
  average eigenvalue GAMMA=   1.2981
  4.6185  2.5434  2.5434  1.9829  0.7735  1.0515  1.0515  0.7686  0.7686  0.4552
  0.4552  0.4774  0.6917  0.6917  0.5984

 Free energy of the ion-electron system (eV)
  ---------------------------------------------------
  alpha Z        PSCENC =        17.51294377
  Ewald energy   TEWEN  =      8063.44724659
  -Hartree energ DENC   =    -11022.68095848
  -exchange      EXHF   =         0.00000000
  -V(xc)+E(xc)   XCENC  =      -135.77773755
  PAW double counting   =      2010.59723280    -1860.31094552
  entropy T*S    EENTRO =         0.00000000
  eigenvalues    EBANDS =      -440.62093876
  atomic energy  EATOM  =      3333.41834461
  Solvation  Ediel_sol  =         0.00000000
  ---------------------------------------------------
  free energy    TOTEN  =       -34.41481254 eV

  energy without entropy =      -34.41481254  energy(sigma->0) =      -34.41481254


--------------------------------------------------------------------------------------------------------




--------------------------------------- Iteration      1(  21)  ---------------------------------------


    POTLOK:  cpu time   51.1600: real time   51.2490
    SETDIJ:  cpu time    0.0480: real time    0.0483
     EDDAV:  cpu time   25.4880: real time   25.7400
 BZINTS: Fermi energy: -2.232241; 64.000000 electrons
         Band energy:-437.916904;  BLOECHL correction: -0.011995
       DOS:  cpu time    0.0040: real time    0.0073
    CHARGE:  cpu time    2.1040: real time    2.1816
    MIXING:  cpu time    0.0560: real time    0.0530
    --------------------------------------------
      LOOP:  cpu time   78.8600: real time   79.2792

 eigenvalue-minimisations  :  1104
 total energy-change (2. order) :-0.5548308E+00  (-0.1234616E-01)
 number of electron      63.9999990 magnetization       7.4203280
 augmentation part        2.9142520 magnetization       6.0933856

 Broyden mixing:
  rms(total) = 0.11733E+01    rms(broyden)= 0.11732E+01
  rms(prec ) = 0.11966E+01
  weight for this iteration     100.00

 eigenvalues of (default mixing * dielectric matrix)
  average eigenvalue GAMMA=   1.2976
  5.7061  2.6962  2.6962  0.7735  1.3411  1.2120  1.2120  0.7444  0.7444  0.4552
  0.4552  0.6778  0.6778  0.6023  0.4770  0.2908

 Free energy of the ion-electron system (eV)
  ---------------------------------------------------
  alpha Z        PSCENC =        17.51294377
  Ewald energy   TEWEN  =      8063.44724659
  -Hartree energ DENC   =    -11025.95002428
  -exchange      EXHF   =         0.00000000
  -V(xc)+E(xc)   XCENC  =      -136.61183566
  PAW double counting   =      2016.14855876    -1865.01797332
  entropy T*S    EENTRO =         0.00000000
  eigenvalues    EBANDS =      -437.91690380
  atomic energy  EATOM  =      3333.41834461
  Solvation  Ediel_sol  =         0.00000000
  ---------------------------------------------------
  free energy    TOTEN  =       -34.96964332 eV

  energy without entropy =      -34.96964332  energy(sigma->0) =      -34.96964332


--------------------------------------------------------------------------------------------------------




--------------------------------------- Iteration      1(  22)  ---------------------------------------


    POTLOK:  cpu time   51.1240: real time   51.2204
    SETDIJ:  cpu time    0.0640: real time    0.0672
     EDDAV:  cpu time   25.6280: real time   25.7566
 BZINTS: Fermi energy: -2.245306; 64.000000 electrons
         Band energy:-437.191142;  BLOECHL correction: -0.011053
       DOS:  cpu time    0.0080: real time    0.0067
    CHARGE:  cpu time    2.1080: real time    2.1183
    MIXING:  cpu time    0.0560: real time    0.0556
    --------------------------------------------
      LOOP:  cpu time   78.9880: real time   79.2248

 eigenvalue-minimisations  :  1104
 total energy-change (2. order) :-0.2565881E-02  (-0.4629523E-02)
 number of electron      63.9999990 magnetization       7.5171151
 augmentation part        2.8782589 magnetization       6.2006807

 Broyden mixing:
  rms(total) = 0.11371E+01    rms(broyden)= 0.11371E+01
  rms(prec ) = 0.11591E+01
  weight for this iteration     100.00

 eigenvalues of (default mixing * dielectric matrix)
  average eigenvalue GAMMA=   1.2120
  5.1561  2.5995  2.5995  0.7735  1.6294  1.1513  1.1513  0.7443  0.7443  0.4552
  0.4552  0.6751  0.6751  0.5957  0.4770  0.3908  0.3306

 Free energy of the ion-electron system (eV)
  ---------------------------------------------------
  alpha Z        PSCENC =        17.51294377
  Ewald energy   TEWEN  =      8063.44724659
  -Hartree energ DENC   =    -11026.64140969
  -exchange      EXHF   =         0.00000000
  -V(xc)+E(xc)   XCENC  =      -136.66627261
  PAW double counting   =      2016.97757872    -1865.82949839
  entropy T*S    EENTRO =         0.00000000
  eigenvalues    EBANDS =      -437.19114221
  atomic energy  EATOM  =      3333.41834461
  Solvation  Ediel_sol  =         0.00000000
  ---------------------------------------------------
  free energy    TOTEN  =       -34.97220920 eV

  energy without entropy =      -34.97220920  energy(sigma->0) =      -34.97220920


--------------------------------------------------------------------------------------------------------




--------------------------------------- Iteration      1(  23)  ---------------------------------------


    POTLOK:  cpu time   51.0520: real time   51.2378
    SETDIJ:  cpu time    0.0520: real time    0.0485
     EDDAV:  cpu time   29.9600: real time   30.2119
 BZINTS: Fermi energy: -2.466073; 64.000000 electrons
         Band energy:-562.453936;  BLOECHL correction: -0.020055
       DOS:  cpu time    0.0040: real time    0.0071
    CHARGE:  cpu time    2.1480: real time    2.1596
    MIXING:  cpu time    0.0560: real time    0.0578
    --------------------------------------------
      LOOP:  cpu time   83.2720: real time   83.7227

 eigenvalue-minimisations  :  1312
 total energy-change (2. order) :-0.1245719E+03  (-0.1202435E+03)
 number of electron      63.9999989 magnetization       7.5171989
 augmentation part        2.2066287 magnetization       8.4468221

 Broyden mixing:
  rms(total) = 0.31860E+01    rms(broyden)= 0.31029E+01
  rms(prec ) = 0.31699E+01
  weight for this iteration     100.00

 eigenvalues of (default mixing * dielectric matrix)
  average eigenvalue GAMMA=   1.1446
  5.1562  2.5993  2.5993  0.7735  1.6296  1.1513  1.1513  0.7443  0.7443  0.4552
  0.4552  0.6751  0.6751  0.5957  0.4770  0.3908  0.3305  0.0000

 Free energy of the ion-electron system (eV)
  ---------------------------------------------------
  alpha Z        PSCENC =        17.51294377
  Ewald energy   TEWEN  =      8063.44724659
  -Hartree energ DENC   =    -11025.97907712
  -exchange      EXHF   =         0.00000000
  -V(xc)+E(xc)   XCENC  =      -136.59149108
  PAW double counting   =      2016.13351271    -1865.03169066
  entropy T*S    EENTRO =         0.00000000
  eigenvalues    EBANDS =      -562.45393567
  atomic energy  EATOM  =      3333.41834461
  Solvation  Ediel_sol  =         0.00000000
  ---------------------------------------------------
  free energy    TOTEN  =      -159.54414685 eV

  energy without entropy =     -159.54414685  energy(sigma->0) =     -159.54414685


--------------------------------------------------------------------------------------------------------




--------------------------------------- Iteration      1(  24)  ---------------------------------------


    POTLOK:  cpu time   50.8080: real time   51.1034
    SETDIJ:  cpu time    0.0480: real time    0.0482
     EDDAV:  cpu time   29.5760: real time   29.8633
 BZINTS: Fermi energy: -2.654244; 64.000000 electrons
         Band energy:-671.106288;  BLOECHL correction: -0.037672
       DOS:  cpu time    0.0080: real time    0.0053
    CHARGE:  cpu time    2.1640: real time    2.1790
    MIXING:  cpu time    0.0600: real time    0.0589
    --------------------------------------------
      LOOP:  cpu time   82.6640: real time   83.2580

 eigenvalue-minimisations  :  1296
 total energy-change (2. order) :-0.1072408E+03  (-0.4454550E+03)
 number of electron      63.9999992 magnetization       7.5181128
 augmentation part        0.7340311 magnetization      11.9891711

 Broyden mixing:
  rms(total) = 0.30349E+01    rms(broyden)= 0.29581E+01
  rms(prec ) = 0.33982E+01
  weight for this iteration     100.00

 eigenvalues of (default mixing * dielectric matrix)
  average eigenvalue GAMMA=   1.0843
[...]
     34      -0.4786      0.00000
     35      -0.3935      0.00000
     36      -0.3211      0.00000
     37      -0.1988      0.00000
     38       0.7533      0.00000
     39       0.7783      0.00000
     40       1.2154      0.00000
     41       1.3456      0.00000
     42       1.6163      0.00000
     43       2.8198      0.00000
     44       2.8326      0.00000
     45       3.1419      0.00000
     46       3.4739      0.00000
     47       3.5296      0.00000
     48       4.2253      0.00000

 k-point     5 :      -0.4000    0.2000    0.0000
  band No.  band energies     occupation 
      1     -15.2957      1.00000
      2     -13.6933      1.00000
      3     -13.5271      1.00000
      4     -13.3044      1.00000
      5     -12.7070      1.00000
      6     -12.6094      1.00000
      7     -11.2045      1.00000
      8      -9.8242      1.00000
      9      -7.0021      1.00000
     10      -6.6234      1.00000
     11      -6.4181      1.00000
     12      -5.9078      1.00000
     13      -5.6187      1.00000
     14      -5.0818      1.00000
     15      -4.8940      1.00000
     16      -4.5799      1.00000
     17      -4.5734      1.00000
     18      -4.4788      1.00000
     19      -4.3893      1.00000
     20      -4.0537      1.00000
     21      -4.0272      1.00000
     22      -3.6766      1.00000
     23      -3.1692      1.00000
     24      -2.8911      1.00000
     25      -2.8190      1.00000
     26      -2.7035      1.00000
     27      -2.4453      1.00000
     28      -2.4032      1.00000
     29      -2.2327      1.00000
     30      -2.2103      1.00000
     31      -2.1792      1.00000
     32      -1.2367      1.00000
     33      -1.0190      0.00000
     34      -0.8592      0.00000
     35      -0.5412      0.00000
     36      -0.1729      0.00000
     37      -0.1565      0.00000
     38       0.2805      0.00000
     39       0.8188      0.00000
     40       0.9656      0.00000
     41       1.4094      0.00000
     42       1.4542      0.00000
     43       2.9900      0.00000
     44       3.3046      0.00000
     45       3.3120      0.00000
     46       3.3154      0.00000
     47       3.5646      0.00000
     48       3.9949      0.00000


--------------------------------------------------------------------------------------------------------


 soft charge-density along one line, spin component           1
         0         1         2         3         4         5         6         7         8         9
 total charge-density along one line

 soft charge-density along one line, spin component           2
         0         1         2         3         4         5         6         7         8         9
 total charge-density along one line

 pseudopotential strength for first ion, spin component:           1
 -9.393  -0.065  -0.000   0.000   0.000   0.650   0.023   0.000
 -0.065  -9.407   0.000   0.000   0.000   0.023   0.655  -0.000
 -0.000   0.000  -9.273   0.000   0.000   0.000  -0.000   0.608
  0.000   0.000   0.000  -9.407   0.065  -0.000  -0.000  -0.000
  0.000   0.000   0.000   0.065  -9.393  -0.000  -0.000  -0.000
  0.650   0.023   0.000  -0.000  -0.000   0.792  -0.008  -0.000
  0.023   0.655  -0.000  -0.000  -0.000  -0.008   0.790   0.000
  0.000  -0.000   0.608  -0.000  -0.000  -0.000   0.000   0.807
 -0.000  -0.000  -0.000   0.655  -0.023   0.000   0.000   0.000
 -0.000  -0.000  -0.000  -0.023   0.650   0.000   0.000   0.000
 -0.000  -0.000  -0.007  -0.000   0.000  -0.000  -0.000   0.002
  0.000   0.000   0.001   0.000  -0.000  -0.000  -0.000  -0.000
  0.000   0.000   0.000  -0.000   0.002  -0.000  -0.000  -0.000
 -0.000  -0.000   0.000  -0.000   0.000  -0.000   0.000  -0.000
  0.002  -0.000   0.000   0.000  -0.000  -0.000  -0.000  -0.000
 -0.000  -0.000  -0.000   0.000  -0.002   0.000   0.000   0.000
  0.000   0.000  -0.000   0.000  -0.000  -0.000  -0.000   0.000
 -0.002   0.000  -0.000  -0.000   0.000   0.000  -0.000   0.000
 pseudopotential strength for first ion, spin component:           2
 -9.373  -0.062  -0.000   0.000   0.000   0.642   0.022   0.000
 -0.062  -9.394   0.000   0.000   0.000   0.022   0.650  -0.000
 -0.000   0.000  -9.262   0.000   0.000   0.000  -0.000   0.604
  0.000   0.000   0.000  -9.394   0.062  -0.000  -0.000  -0.000
  0.000   0.000   0.000   0.062  -9.373  -0.000  -0.000  -0.000
  0.642   0.022   0.000  -0.000  -0.000   0.794  -0.008  -0.000
  0.022   0.650  -0.000  -0.000  -0.000  -0.008   0.791   0.000
  0.000  -0.000   0.604  -0.000  -0.000  -0.000   0.000   0.809
 -0.000  -0.000  -0.000   0.650  -0.022   0.000   0.000   0.000
 -0.000  -0.000  -0.000  -0.022   0.642   0.000   0.000   0.000
 -0.000  -0.000  -0.006  -0.000   0.000  -0.000  -0.000   0.002
  0.000   0.000   0.001   0.000  -0.000  -0.000  -0.000  -0.000
  0.000   0.000   0.000  -0.000   0.002  -0.000  -0.000  -0.000
 -0.000  -0.000   0.000  -0.000   0.000  -0.000   0.000  -0.000
  0.002  -0.000   0.000   0.000  -0.000  -0.000  -0.000  -0.000
 -0.000  -0.000  -0.000   0.000  -0.002   0.000   0.000   0.000
  0.000   0.000  -0.000   0.000  -0.000  -0.000  -0.000   0.000
 -0.002   0.000  -0.000  -0.000   0.000   0.000  -0.000   0.000
 total augmentation occupancy for first ion, spin component:           1
  1.671  -0.205   0.000   0.000  -0.000   0.125   0.099   0.000  -0.000   0.000   0.000  -0.000   0.000   0.000   0.023  -0.000
 -0.205   1.501  -0.000  -0.000   0.000   0.102   0.212   0.000   0.000  -0.000  -0.000   0.000   0.000   0.000  -0.003   0.000
  0.000  -0.000   1.890  -0.000  -0.000   0.000   0.000   0.021   0.000  -0.000   0.003  -0.003  -0.000   0.000   0.000   0.000
  0.000  -0.000  -0.000   1.501   0.205  -0.000  -0.000   0.000   0.212  -0.102  -0.000  -0.000   0.003  -0.000   0.000   0.000
 -0.000   0.000  -0.000   0.205   1.671  -0.000  -0.000  -0.000  -0.099   0.125  -0.000   0.000   0.023  -0.000  -0.000  -0.000
  0.125   0.102   0.000  -0.000  -0.000   0.078   0.051   0.000  -0.000  -0.000  -0.000  -0.000  -0.000   0.000   0.011   0.000
  0.099   0.212   0.000  -0.000  -0.000   0.051   0.117   0.000  -0.000  -0.000   0.000  -0.000   0.000   0.000   0.001  -0.000
  0.000   0.000   0.021   0.000  -0.000   0.000   0.000   0.053   0.000  -0.000  -0.006  -0.001  -0.000   0.000   0.000   0.000
 -0.000   0.000   0.000   0.212  -0.099  -0.000  -0.000   0.000   0.117  -0.051   0.000   0.000  -0.001   0.000   0.000  -0.000
  0.000  -0.000  -0.000  -0.102   0.125  -0.000  -0.000  -0.000  -0.051   0.078   0.000   0.000   0.011  -0.000   0.000  -0.002
  0.000  -0.000   0.003  -0.000  -0.000  -0.000  -0.000  -0.006   0.000   0.000   1.048  -0.291   0.000   0.001   0.000   0.000
 -0.000   0.000  -0.003  -0.000   0.000  -0.000   0.000  -0.001   0.000   0.000  -0.291   0.134  -0.000  -0.000  -0.000   0.000
  0.000   0.000  -0.000   0.003   0.023  -0.000   0.000  -0.000  -0.001   0.011   0.000   0.000   0.191   0.000  -0.000  -0.013
  0.000  -0.000   0.000  -0.000  -0.000   0.000   0.000   0.000   0.000  -0.000   0.001  -0.000  -0.000   0.190   0.000   0.000
  0.023  -0.003   0.000   0.000  -0.000   0.011   0.001   0.000   0.000   0.000   0.000   0.000  -0.000   0.000   0.191  -0.000
 -0.000   0.000   0.000   0.000  -0.000   0.000  -0.000   0.000  -0.000  -0.002   0.000   0.000  -0.013   0.000  -0.000   0.001
  0.000  -0.000   0.000   0.000  -0.000  -0.000   0.000  -0.000  -0.000   0.000  -0.000   0.000   0.000  -0.013  -0.000   0.000
 -0.000  -0.000  -0.000   0.000   0.000  -0.002   0.000  -0.000  -0.000  -0.000   0.000  -0.000   0.000  -0.000  -0.013  -0.000
 total augmentation occupancy for first ion, spin component:           2
  0.008   0.002   0.000  -0.000  -0.000  -0.004  -0.001  -0.000   0.000   0.000  -0.000  -0.000  -0.000   0.000  -0.001  -0.000
  0.002   0.001   0.000  -0.000  -0.000  -0.000  -0.001  -0.000  -0.000  -0.000   0.000  -0.000  -0.000  -0.000  -0.000   0.000
  0.000   0.000   0.000   0.000  -0.000  -0.000  -0.000  -0.001  -0.000   0.000  -0.000  -0.001   0.000   0.000  -0.000   0.000
 -0.000  -0.000   0.000   0.001  -0.002  -0.000   0.000  -0.000  -0.001   0.000  -0.000  -0.000   0.000   0.000  -0.000  -0.000
 -0.000  -0.000  -0.000  -0.002   0.008  -0.000   0.000   0.000   0.001  -0.004   0.000   0.000  -0.001  -0.000   0.000  -0.000
 -0.004  -0.000  -0.000  -0.000  -0.000   0.001  -0.000   0.000   0.000  -0.000  -0.000   0.000   0.000  -0.000   0.000  -0.000
 -0.001  -0.001  -0.000   0.000   0.000  -0.000  -0.000  -0.000   0.000   0.000  -0.000   0.000   0.000  -0.000   0.000   0.000
 -0.000  -0.000  -0.001  -0.000   0.000   0.000  -0.000  -0.000  -0.000  -0.000  -0.000   0.000  -0.000  -0.000   0.000   0.000
  0.000  -0.000  -0.000  -0.001   0.001   0.000   0.000  -0.000  -0.000   0.000   0.000   0.000  -0.000  -0.000   0.000   0.000
  0.000  -0.000   0.000   0.000  -0.004  -0.000   0.000  -0.000   0.000   0.001   0.000  -0.000   0.000   0.000  -0.000  -0.000
 -0.000   0.000  -0.000  -0.000   0.000  -0.000  -0.000  -0.000   0.000   0.000   0.000   0.001   0.000  -0.000   0.000   0.000
 -0.000  -0.000  -0.001  -0.000   0.000   0.000   0.000   0.000   0.000  -0.000   0.001  -0.000   0.000   0.000   0.000   0.000
 -0.000  -0.000   0.000   0.000  -0.001   0.000   0.000  -0.000  -0.000   0.000   0.000   0.000   0.000   0.000  -0.000   0.000
  0.000  -0.000   0.000   0.000  -0.000  -0.000   0.000  -0.000  -0.000   0.000  -0.000   0.000   0.000   0.000   0.000   0.000
 -0.001  -0.000  -0.000  -0.000   0.000   0.000   0.000   0.000   0.000  -0.000   0.000   0.000  -0.000   0.000   0.000   0.000
 -0.000   0.000   0.000  -0.000  -0.000  -0.000   0.000   0.000   0.000  -0.000   0.000   0.000   0.000   0.000   0.000  -0.000
  0.000  -0.000   0.000  -0.000  -0.000   0.000   0.000   0.000   0.000  -0.000   0.000  -0.000  -0.000   0.000   0.000   0.000
 -0.000   0.000  -0.000   0.000   0.000  -0.000  -0.000  -0.000   0.000   0.000  -0.000  -0.000  -0.000  -0.000   0.000   0.000


------------------------ aborting loop because EDIFF is reached ----------------------------------------





 total charge     

# of ion       s       p       d       tot
------------------------------------------
    1        0.373   0.429   7.431   8.233
    2        0.373   0.429   7.431   8.233
    3        1.096   1.352   0.000   2.448
    4        1.096   1.352   0.000   2.448
    5        1.414   1.904   0.052   3.369
    6        1.398   1.889   0.055   3.342
    7        1.409   1.894   0.053   3.356
    8        1.414   1.904   0.052   3.369
    9        1.398   1.889   0.055   3.342
   10        1.409   1.894   0.053   3.356
--------------------------------------------------
tot         11.379  14.936  15.181  41.497



 magnetization (x)

# of ion       s       p       d       tot
------------------------------------------
    1        0.000   0.000   0.022   0.022
    2        0.000   0.000   0.022   0.022
    3        0.002   0.000   0.000   0.002
    4        0.002   0.000   0.000   0.002
    5        0.000   0.001   0.000   0.001
    6        0.000   0.001   0.000   0.002
    7        0.000   0.001   0.000   0.001
    8        0.000   0.001   0.000   0.001
    9        0.000   0.001   0.000   0.002
   10        0.000   0.001   0.000   0.001
--------------------------------------------------
tot          0.005   0.006   0.045   0.057

    CHARGE:  cpu time    2.1360: real time    2.1507
    FORLOC:  cpu time    0.0880: real time    0.0905
    FORNL :  cpu time    6.7040: real time    6.7647
    STRESS:  cpu time   20.1840: real time   20.2928
    FORCOR:  cpu time   51.4360: real time   51.5707
    FORHAR:  cpu time    0.3240: real time    0.3222
    MIXING:  cpu time    0.0560: real time    0.0565
    OFIELD:  cpu time    0.0000: real time    0.0001

  FORCE on cell =-STRESS in cart. coord.  units (eV):
  Direction    XX          YY          ZZ          XY          YZ          ZX
  --------------------------------------------------------------------------------------
  Alpha Z    20.88773    20.88773    20.88773
  Ewald    8886.93765  8886.93459-10889.07045    -0.00202    -0.00063    -0.00115
  Hartree  9466.45279  9466.45371 -9037.14612    -0.00019     0.00009     0.00015
  E(xc)    -270.16546  -270.16545  -270.41978     0.00004     0.00002     0.00002
  Local  -19278.90842-19278.90726 18958.31648     0.00187     0.00041     0.00076
  n-local   704.20965   706.13472   723.17302     0.78719     0.62845     0.41836
  augment   -85.22784   -85.22768   -93.26476     0.00007     0.00004     0.00005
  Kinetic   558.96342   551.23639   587.47086    -4.84327    -0.25713    -0.84926
  Fock        0.00000     0.00000     0.00000     0.00000     0.00000     0.00000
  -------------------------------------------------------------------------------------
  Total       0.24813     0.24813    -0.05303     0.00000     0.00000     0.00000
  in kB       0.48940     0.48940    -0.10459     0.00000     0.00000     0.00000
  external pressure =        0.29 kB  Pullay stress =        0.00 kB


 VOLUME and BASIS-vectors are now :
 -----------------------------------------------------------------------------
  energy-cutoff  :      520.00
  volume of cell :      812.30
      direct lattice vectors                 reciprocal lattice vectors
     6.766664026  0.000000181 -0.000000000     0.147783311 -0.085322722 -0.000000000
     3.383331391  5.860102696 -0.000000000    -0.000000005  0.170645476 -0.000000000
     0.000000000  0.000000000 20.485095716     0.000000000  0.000000000  0.048815979

  length of vectors
     6.766664026  6.766663499 20.485095716     0.170645463  0.170645476  0.048815979


 FORCES acting on ions
    electron-ion (+dipol)            ewald-force                    non-local-force                 convergence-correction
 -----------------------------------------------------------------------------------------------
   0.864E-04 0.394E-04 0.127E+01   0.676E-03 0.403E-03 -.129E+01   0.521E-17 0.347E-17 0.243E-01   -.889E-08 -.582E-08 0.624E-04
   -.864E-04 -.394E-04 -.127E+01   -.676E-03 -.403E-03 0.129E+01   -.762E-20 -.674E-21 -.243E-01   0.889E-08 0.582E-08 -.624E-04
   -.460E-04 -.193E-04 0.255E+03   -.187E-03 -.103E-03 -.258E+03   0.799E-17 -.138E-16 0.334E+01   -.326E-09 0.342E-09 0.204E-01
   0.460E-04 0.193E-04 -.255E+03   0.187E-03 0.103E-03 0.258E+03   0.589E-17 0.138E-16 -.334E+01   0.326E-09 -.342E-09 -.204E-01
   -.180E+02 0.141E+00 -.416E+03   0.157E+02 -.138E+00 0.420E+03   0.163E+01 -.125E-01 -.399E+01   -.457E-02 -.429E-05 -.369E-01
   0.912E+01 0.155E+02 -.416E+03   -.795E+01 -.135E+02 0.420E+03   -.826E+00 -.141E+01 -.399E+01   0.228E-02 0.396E-02 -.369E-01
   0.887E+01 -.157E+02 -.416E+03   -.771E+01 0.136E+02 0.420E+03   -.804E+00 0.142E+01 -.399E+01   0.229E-02 -.395E-02 -.369E-01
   0.180E+02 -.141E+00 0.416E+03   -.157E+02 0.138E+00 -.420E+03   -.163E+01 0.125E-01 0.399E+01   0.457E-02 0.429E-05 0.369E-01
   -.912E+01 -.155E+02 0.416E+03   0.795E+01 0.135E+02 -.420E+03   0.826E+00 0.141E+01 0.399E+01   -.228E-02 -.396E-02 0.369E-01
   -.887E+01 0.157E+02 0.416E+03   0.771E+01 -.136E+02 -.420E+03   0.804E+00 -.142E+01 0.399E+01   -.229E-02 0.395E-02 0.369E-01
 -----------------------------------------------------------------------------------------------
   0.405E-10 0.482E-10 0.192E-09   -.133E-13 0.888E-14 0.227E-12   0.444E-15 0.000E+00 0.888E-15   0.279E-13 -.289E-13 0.696E-11


 POSITION                                       TOTAL-FORCE (eV/Angst)
 -----------------------------------------------------------------------------------
      3.38333      1.95337     10.24062         0.000000      0.000000     -0.000977
      6.76667      3.90674     10.24448         0.000000      0.000000      0.000977
      0.00000      0.00000      9.12030         0.000000      0.000000     -0.026570
      0.00000      0.00000     11.36479         0.000000      0.000000      0.026570
      4.23977      0.00246     11.75336        -0.714728     -0.008908      0.026101
      1.26558      2.18713     11.75336         0.349649      0.623426      0.026101
      4.64465      3.67052     11.75336         0.365078     -0.614518      0.026101
      5.91023      5.85764      8.73173         0.714728      0.008908     -0.026101
      8.88441      3.67297      8.73173        -0.349649     -0.623426     -0.026101
      5.50534      2.18959      8.73173        -0.365078      0.614518     -0.026101
 -----------------------------------------------------------------------------------
    total drift:                                0.000000      0.000000      0.000000


--------------------------------------------------------------------------------------------------------



  FREE ENERGIE OF THE ION-ELECTRON SYSTEM (eV)
  ---------------------------------------------------
  free  energy   TOTEN  =       -37.31278163 eV

  energy  without entropy=      -37.31278163  energy(sigma->0) =      -37.31278163

 d Force =-0.3705533E-05[-0.490E-04, 0.416E-04]  d Energy = 0.1457676E-01-0.146E-01
 d Force =-0.4747293E+00[-0.475E+00,-0.474E+00]  d Ewald  =-0.4070779E+01 0.360E+01


--------------------------------------------------------------------------------------------------------


    POTLOK:  cpu time   51.3880: real time   51.6790


--------------------------------------------------------------------------------------------------------




--------------------------------------------------------------------------------------------------------


  
 reached required accuracy - stopping structural energy minimisation
     LOOP+:  cpu time 1621.4920: real time 1631.0561
    4ORBIT:  cpu time    0.0000: real time    0.0000



 total charge     

# of ion       s       p       d       tot
------------------------------------------
    1        0.373   0.429   7.431   8.233
    2        0.373   0.429   7.431   8.233
    3        1.096   1.352   0.000   2.448
    4        1.096   1.352   0.000   2.448
    5        1.414   1.904   0.052   3.369
    6        1.398   1.889   0.055   3.342
    7        1.409   1.894   0.053   3.356
    8        1.414   1.904   0.052   3.369
    9        1.398   1.889   0.055   3.342
   10        1.409   1.894   0.053   3.356
--------------------------------------------------
tot         11.379  14.936  15.181  41.497



 magnetization (x)

# of ion       s       p       d       tot
------------------------------------------
    1        0.000   0.000   0.022   0.022
    2        0.000   0.000   0.022   0.022
    3        0.002   0.000   0.000   0.002
    4        0.002   0.000   0.000   0.002
    5        0.000   0.001   0.000   0.001
    6        0.000   0.001   0.000   0.002
    7        0.000   0.001   0.000   0.001
    8        0.000   0.001   0.000   0.001
    9        0.000   0.001   0.000   0.002
   10        0.000   0.001   0.000   0.001
--------------------------------------------------
tot          0.005   0.006   0.045   0.057

 BZINTS: Fermi energy: -1.018952; 63.998980 electrons
         Band energy:-395.834524;  BLOECHL correction: -0.016984

 total amount of memory used by VASP MPI-rank0   129945. kBytes
=======================================================================

   base      :      30000. kBytes
   nonlr-proj:       9635. kBytes
   fftplans  :      11247. kBytes
   grid      :      66142. kBytes
   one-center:        311. kBytes
   wavefun   :      12610. kBytes

  
  
 General timing and accounting informations for this job:
 ========================================================
  
                  Total CPU time used (sec):    31047.760
                            User time (sec):    30365.328
                          System time (sec):      682.432
                         Elapsed time (sec):    31258.619
  
                   Maximum memory used (kb):      396772.
                   Average memory used (kb):           0.
  
                          Minor page faults:     23559467
                          Major page faults:            7
                 Voluntary context switches:         1252
