 vasp.5.4.4.18Apr17-6-g9f103f2a35 (build May  1 2020 15:48:39) complex           
 executed on             LinuxGNU date 2020.07.02  15:15:26
 running on    8 total cores
 distrk:  each k-point on    8 cores,    1 groups
 distr:  one band on NCORES_PER_BAND=   1 cores,    8 groups


--------------------------------------------------------------------------------------------------------


 INCAR:
 POTCAR:   PAW_PBE Cr 06Sep2000                   
 POTCAR:    PAW_PBE P 17Jan2003                   
 POTCAR:    PAW_PBE S 17Jan2003                   

 ----------------------------------------------------------------------------- 
|                                                                             |
|           W    W    AA    RRRRR   N    N  II  N    N   GGGG   !!!           |
|           W    W   A  A   R    R  NN   N  II  NN   N  G    G  !!!           |
|           W    W  A    A  R    R  N N  N  II  N N  N  G       !!!           |
|           W WW W  AAAAAA  RRRRR   N  N N  II  N  N N  G  GGG   !            |
|           WW  WW  A    A  R   R   N   NN  II  N   NN  G    G                |
|           W    W  A    A  R    R  N    N  II  N    N   GGGG   !!!           |
|                                                                             |
|      For optimal performance we recommend to set                            |
|        NCORE= 4 - approx SQRT( number of cores)                             |
|      NCORE specifies how many cores store one orbital (NPAR=cpu/NCORE).     |
|      This setting can  greatly improve the performance of VASP for DFT.     |
|      The default,   NCORE=1            might be grossly inefficient         |
|      on modern multi-core architectures or massively parallel machines.     |
|      Do your own testing !!!!                                               |
|      Unfortunately you need to use the default for GW and RPA calculations. |
|      (for HF NCORE is supported but not extensively tested yet)             |
|                                                                             |
 ----------------------------------------------------------------------------- 


 ----------------------------------------------------------------------------- 
|                                                                             |
|  ADVICE TO THIS USER RUNNING 'VASP/VAMP'   (HEAR YOUR MASTER'S VOICE ...):  |
|                                                                             |
|      You have switched on vdW-DFT.                                          |
|      This routine was written and supplied by Jiri Klimes.                  |
|      We recommed that you carefully read and cite the following             |
|      publication                                                            |
|      J. Klimes, D.R. Bowler, A. Michelides                                  |
|        J. Phys.: Cond Matt. 22 022201 (2010)                                |
|      J. Klimes, D.R. Bowler, A. Michelides                                  |
|        Phys. Rev. B. 83, 195131 (2011)                                      |
|      and references therein.                                                |
|                                                                             |
 ----------------------------------------------------------------------------- 

 POTCAR:   PAW_PBE Cr 06Sep2000                   
   VRHFIN =Cr : d5 s1                                                           
   LEXCH  = PE                                                                  
   EATOM  =   276.9744 eV,   20.3570 Ry                                         
                                                                                
   TITEL  = PAW_PBE Cr 06Sep2000                                                
   LULTRA =        F    use ultrasoft PP ?                                      
   IUNSCR =        1    unscreen: 0-lin 1-nonlin 2-no                           
   RPACOR =    2.080    partial core radius                                     
   POMASS =   51.996; ZVAL   =    6.000    mass and valenz                      
   RCORE  =    2.500    outmost cutoff radius                                   
   RWIGS  =    2.500; RWIGS  =    1.323    wigner-seitz radius (au A)           
   ENMAX  =  227.082; ENMIN  =  170.311 eV                                      
   RCLOC  =    1.721    cutoff for local pot                                    
   LCOR   =        T    correct aug charges                                     
   LPAW   =        T    paw PP                                                  
   EAUG   =  402.108                                                            
   DEXC   =    -.035                                                            
   RMAX   =    3.060    core radius for proj-oper                               
   RAUG   =    1.300    factor for augmentation sphere                          
   RDEP   =    2.609    radius for radial grids                                 
   QCUT   =   -4.085; QGAM   =    8.171    optimization parameters              
                                                                                
   Description                                                                  
     l     E      TYP  RCUT    TYP  RCUT                                        
     2   .000     23  2.500                                                     
     2   .000     23  2.500                                                     
     0   .000     23  2.500                                                     
     0   .000     23  2.500                                                     
     1  -.400     23  2.500                                                     
     1  2.000     23  2.500                                                     
     3   .000      7   .000                                                     
  local pseudopotential read in
  partial core-charges read in
  atomic valenz-charges read in
  non local Contribution for L=           2  read in
    real space projection operators read in
  non local Contribution for L=           2  read in
    real space projection operators read in
  non local Contribution for L=           0  read in
    real space projection operators read in
  non local Contribution for L=           0  read in
    real space projection operators read in
  non local Contribution for L=           1  read in
    real space projection operators read in
  non local Contribution for L=           1  read in
    real space projection operators read in
    PAW grid and wavefunctions read in

   number of l-projection  operators is LMAX  =           6
   number of lm-projection operators is LMMAX =          18

 POTCAR:    PAW_PBE P 17Jan2003                   
   VRHFIN =P : s2p3                                                             
   LEXCH  = PE                                                                  
   EATOM  =   176.0430 eV,   12.9388 Ry                                         
                                                                                
   TITEL  = PAW_PBE P 17Jan2003                                                 
   LULTRA =        F    use ultrasoft PP ?                                      
   IUNSCR =        1    unscreen: 0-lin 1-nonlin 2-no                           
   RPACOR =    1.500    partial core radius                                     
   POMASS =   30.974; ZVAL   =    5.000    mass and valenz                      
   RCORE  =    1.900    outmost cutoff radius                                   
   RWIGS  =    2.330; RWIGS  =    1.233    wigner-seitz radius (au A)           
   ENMAX  =  270.000; ENMIN  =  191.280 eV                                      
   ICORE  =        2    local potential                                         
   LCOR   =        T    correct aug charges                                     
   LPAW   =        T    paw PP                                                  
   EAUG   =  342.924                                                            
   DEXC   =    -.002                                                            
   RMAX   =    2.887    core radius for proj-oper                               
   RAUG   =    1.300    factor for augmentation sphere                          
   RDEP   =    1.931    radius for radial grids                                 
   QCUT   =   -4.330; QGAM   =    8.659    optimization parameters              
                                                                                
   Description                                                                  
     l     E      TYP  RCUT    TYP  RCUT                                        
     0   .000     23  1.900                                                     
     0   .000     23  1.900                                                     
     1   .000     23  1.900                                                     
     1   .000     23  1.900                                                     
     2   .000     23  1.900                                                     
  local pseudopotential read in
  partial core-charges read in
  atomic valenz-charges read in
  non local Contribution for L=           0  read in
    real space projection operators read in
  non local Contribution for L=           0  read in
    real space projection operators read in
  non local Contribution for L=           1  read in
    real space projection operators read in
  non local Contribution for L=           1  read in
    real space projection operators read in
    PAW grid and wavefunctions read in

   number of l-projection  operators is LMAX  =           4
   number of lm-projection operators is LMMAX =           8

 POTCAR:    PAW_PBE S 17Jan2003                   
   VRHFIN =S : s2p4                                                             
   LEXCH  = PE                                                                  
   EATOM  =   276.8230 eV,   20.3459 Ry                                         
                                                                                
   TITEL  = PAW_PBE S 17Jan2003                                                 
   LULTRA =        F    use ultrasoft PP ?                                      
   IUNSCR =        1    unscreen: 0-lin 1-nonlin 2-no                           
   RPACOR =    1.500    partial core radius                                     
   POMASS =   32.066; ZVAL   =    6.000    mass and valenz                      
   RCORE  =    1.900    outmost cutoff radius                                   
   RWIGS  =    2.200; RWIGS  =    1.164    wigner-seitz radius (au A)           
   ENMAX  =  280.000; ENMIN  =  194.016 eV                                      
   ICORE  =        2    local potential                                         
   LCOR   =        T    correct aug charges                                     
   LPAW   =        T    paw PP                                                  
   EAUG   =  335.092                                                            
   DEXC   =     .000                                                            
   RMAX   =    2.867    core radius for proj-oper                               
   RAUG   =    1.300    factor for augmentation sphere                          
   RDEP   =    1.954    radius for radial grids                                 
   QCUT   =   -4.360; QGAM   =    8.721    optimization parameters              
                                                                                
   Description                                                                  
     l     E      TYP  RCUT    TYP  RCUT                                        
     0   .000     23  1.900                                                     
     0   .000     23  1.900                                                     
     1   .000     23  1.900                                                     
     1   .000     23  1.900                                                     
     2   .000     23  1.900                                                     
  local pseudopotential read in
  partial core-charges read in
  atomic valenz-charges read in
  non local Contribution for L=           0  read in
    real space projection operators read in
  non local Contribution for L=           0  read in
    real space projection operators read in
  non local Contribution for L=           1  read in
    real space projection operators read in
  non local Contribution for L=           1  read in
    real space projection operators read in
    PAW grid and wavefunctions read in

   number of l-projection  operators is LMAX  =           4
   number of lm-projection operators is LMMAX =           8

 Optimization of the real space projectors (new method)

 maximal supplied QI-value         = 15.12
 optimisation between [QCUT,QGAM] = [ 11.64, 23.28] = [ 37.95,151.78] Ry 
 Optimized for a Real-space Cutoff    1.49 Angstroem

   l    n(q)    QCUT    max X(q) W(low)/X(q) W(high)/X(q)  e(spline) 
   2      9    11.641     4.777    0.25E-04    0.21E-05    0.63E-07
   2      9    11.641    31.132    0.13E-03    0.22E-03    0.64E-06
   0     10    11.641    20.416    0.11E-04    0.74E-05    0.19E-07
   0     10    11.641    45.408    0.10E-03    0.85E-04    0.30E-06
   1     10    11.641     7.848    0.22E-04    0.23E-04    0.56E-07
   1     10    11.641     9.895    0.85E-04    0.54E-04    0.16E-06
 Optimization of the real space projectors (new method)

 maximal supplied QI-value         = 19.84
 optimisation between [QCUT,QGAM] = [ 11.51, 23.22] = [ 37.09,150.92] Ry 
 Optimized for a Real-space Cutoff    1.21 Angstroem

   l    n(q)    QCUT    max X(q) W(low)/X(q) W(high)/X(q)  e(spline) 
   0      8    11.508     6.651    0.19E-04    0.31E-05    0.49E-08
   0      8    11.508    90.285    0.95E-04    0.17E-03    0.51E-07
   1      8    11.508     4.328    0.14E-04    0.32E-04    0.22E-07
   1      8    11.508    54.583    0.16E-03    0.71E-04    0.89E-07
 Optimization of the real space projectors (new method)

 maximal supplied QI-value         = 19.84
 optimisation between [QCUT,QGAM] = [ 11.51, 23.22] = [ 37.09,150.92] Ry 
 Optimized for a Real-space Cutoff    1.21 Angstroem

   l    n(q)    QCUT    max X(q) W(low)/X(q) W(high)/X(q)  e(spline) 
   0      8    11.508     5.487    0.18E-04    0.22E-05    0.47E-08
   0      8    11.508    85.627    0.96E-04    0.18E-03    0.54E-07
   1      8    11.508     3.530    0.17E-04    0.28E-04    0.21E-07
   1      8    11.508    42.714    0.18E-03    0.63E-04    0.92E-07

 ----------------------------------------------------------------------------- 
|                                                                             |
|  ADVICE TO THIS USER RUNNING 'VASP/VAMP'   (HEAR YOUR MASTER'S VOICE ...):  |
|                                                                             |
|      You enforced a specific xc-type in the INCAR file,                     |
|      a different type was found on the POTCAR file                          |
|          I HOPE YOU KNOW, WHAT YOU ARE  DOING                               |
|                                                                             |
 ----------------------------------------------------------------------------- 

 PAW_PBE Cr 06Sep2000                   :
 energy of atom  1       EATOM= -276.9744
 kinetic energy error for atom=    0.0010 (will be added to EATOM!!)
  PAW_PBE P 17Jan2003                   :
 energy of atom  2       EATOM= -176.0430
 kinetic energy error for atom=    0.0011 (will be added to EATOM!!)
  PAW_PBE S 17Jan2003                   :
 energy of atom  3       EATOM= -276.8230
 kinetic energy error for atom=    0.0016 (will be added to EATOM!!)


 POSCAR: Cr2 P2 S6                               
  positions in direct lattice
  velocities in cartesian coordinates
  No initial velocities read in
 exchange correlation table for  LEXCH =       42
   RHO(1)=    0.500       N(1)  =     2000
   RHO(2)=  100.500       N(2)  =     4000



--------------------------------------------------------------------------------------------------------


 ion  position               nearest neighbor table
   1  0.333  0.333  0.500-   6 2.78   5 2.78   7 2.78   8 2.78  10 2.78   9 2.78
   2  0.667  0.667  0.500-   9 2.78   8 2.78  10 2.78   5 2.78   7 2.78   6 2.78
   3  0.000  0.000  0.448-   4 2.43   8 2.63  10 2.63   9 2.63
   4  0.000  0.000  0.552-   3 2.43   5 2.63   7 2.63   6 2.63
   5  0.626  0.000  0.574-   4 2.63   1 2.78   2 2.78
   6  0.000  0.373  0.574-   4 2.63   1 2.78   2 2.78
   7  0.373  0.626  0.574-   4 2.63   1 2.78   2 2.78
   8  0.374  1.000  0.426-   3 2.63   2 2.78   1 2.78
   9  1.000  0.627  0.426-   3 2.63   2 2.78   1 2.78
  10  0.627  0.374  0.426-   3 2.63   2 2.78   1 2.78

  LATTYP: Found a hexagonal cell.
 ALAT       =     6.9077769333
 C/A-ratio  =     3.3939410937
  
  Lattice vectors:
  
 A1 = (   3.4538890000,  -5.9823100000,   0.0000000000)
 A2 = (  -6.9077770000,   0.0000000000,   0.0000000000)
 A3 = (   0.0000000000,   0.0000000000, -23.4445880000)


Analysis of symmetry for initial positions (statically):
=====================================================================
 Subroutine PRICEL returns:
 Original cell was already a primitive cell.
 

 Routine SETGRP: Setting up the symmetry group for a 
 hexagonal supercell.


 Subroutine GETGRP returns: Found  6 space group operations
 (whereof  6 operations were pure point group operations)
 out of a pool of 24 trial point group operations.


The static configuration has the point symmetry S_6 .


Analysis of symmetry for dynamics (positions and initial velocities):
=====================================================================
 Subroutine PRICEL returns:
 Original cell was already a primitive cell.
 

 Routine SETGRP: Setting up the symmetry group for a 
 hexagonal supercell.


 Subroutine GETGRP returns: Found  6 space group operations
 (whereof  6 operations were pure point group operations)
 out of a pool of 24 trial point group operations.


The dynamic configuration has the point symmetry S_6 .


Analysis of constrained symmetry for selective dynamics:
=====================================================================
 Subroutine PRICEL returns:
 Original cell was already a primitive cell.
 

 Routine SETGRP: Setting up the symmetry group for a 
 hexagonal supercell.


 Subroutine GETGRP returns: Found  6 space group operations
 (whereof  6 operations were pure point group operations)
 out of a pool of 24 trial point group operations.


The constrained configuration has the point symmetry S_6 .


Analysis of structural, dynamic, and magnetic symmetry:
=====================================================================
 Subroutine PRICEL returns:
 Original cell was already a primitive cell.
 

 Routine SETGRP: Setting up the symmetry group for a 
 hexagonal supercell.


 Subroutine GETGRP returns: Found  6 space group operations
 (whereof  6 operations were pure point group operations)
 out of a pool of 24 trial point group operations.


The magnetic configuration has the point symmetry S_6 .


 Subroutine INISYM returns: Found  6 space group operations
 (whereof  6 operations are pure point group operations),
 and found     1 'primitive' translations



 KPOINTS: Kpoints from vasprun.xml                

Automatic generation of k-mesh.
Space group operators:
 irot       det(A)        alpha          n_x          n_y          n_z        tau_x        tau_y        tau_z
    1     1.000000     0.000000     1.000000     0.000000     0.000000     0.000000     0.000000     0.000000
    2    -1.000000     0.000000     1.000000     0.000000     0.000000     0.000000     0.000000     0.000000
    3     1.000000   120.000000     0.000000     0.000000     1.000000     0.000000     0.000000     0.000000
    4    -1.000000   120.000000     0.000000     0.000000     1.000000     0.000000     0.000000     0.000000
    5     1.000000   120.000000     0.000000     0.000000    -1.000000     0.000000     0.000000     0.000000
    6    -1.000000   120.000000     0.000000     0.000000    -1.000000     0.000000     0.000000     0.000000
 
 Subroutine IBZKPT returns following result:
 ===========================================
 
 Found      5 irreducible k-points:
 
 Following reciprocal coordinates:
            Coordinates               Weight
  0.000000  0.000000  0.000000      1.000000
  0.200000  0.000000  0.000000      6.000000
  0.400000  0.000000  0.000000      6.000000
  0.400000  0.200000  0.000000      6.000000
 -0.400000  0.200000  0.000000      6.000000
 
 Following cartesian coordinates:
            Coordinates               Weight
  0.000000  0.000000  0.000000      1.000000
  0.028953 -0.016716  0.000000      6.000000
  0.057906 -0.033432  0.000000      6.000000
  0.057906  0.000000  0.000000      6.000000
 -0.057906  0.066864  0.000000      6.000000
 
 TETIRR: Found     15 inequivalent tetrahedra from      150


--------------------------------------------------------------------------------------------------------




 Dimension of arrays:
   k-points           NKPTS =      5   k-points in BZ     NKDIM =      5   number of bands    NBANDS=     40
   number of dos      NEDOS =    301   number of ions     NIONS =     10
   non local maximal  LDIM  =      6   non local SUM 2l+1 LMDIM =     18
   total plane-waves  NPLWV = 524880
   max r-space proj   IRMAX =   7543   max aug-charges    IRDMAX=  27873
   dimension x,y,z NGX =    54 NGY =   54 NGZ =  180
   dimension x,y,z NGXF=   108 NGYF=  108 NGZF=  360
   support grid    NGXF=   108 NGYF=  108 NGZF=  360
   ions per type =               2   2   6
   NGX,Y,Z   is equivalent  to a cutoff of  13.00, 13.00, 12.76 a.u.
   NGXF,Y,Z  is equivalent  to a cutoff of  25.99, 25.99, 25.53 a.u.

 SYSTEM =  unknown system                          
 POSCAR =  Cr2 P2 S6                               

 Startparameter for this run:
   NWRITE =      2    write-flag & timer
   PREC   = accura    normal or accurate (medium, high low for compatibility)
   ISTART =      0    job   : 0-new  1-cont  2-samecut
   ICHARG =      2    charge: 1-file 2-atom 10-const
   ISPIN  =      2    spin polarized calculation?
   LNONCOLLINEAR =      F non collinear calculations
   LSORBIT =      F    spin-orbit coupling
   INIWAV =      1    electr: 0-lowe 1-rand  2-diag
   LASPH  =      F    aspherical Exc in radial PAW
   METAGGA=      F    non-selfconsistent MetaGGA calc.

 Electronic Relaxation 1
   ENCUT  =  520.0 eV  38.22 Ry    6.18 a.u.  12.84 12.84 43.59*2*pi/ulx,y,z
   ENINI  =  520.0     initial cutoff
   ENAUG  =  402.1 eV  augmentation charge cutoff
   NELM   =    400;   NELMIN=  2; NELMDL=  0     # of ELM steps 
   EDIFF  = 0.1E-03   stopping-criterion for ELM
   LREAL  =      T    real-space projection
   NLSPLINE    = F    spline interpolate recip. space projectors
   LCOMPAT=      F    compatible to vasp.4.4
   GGA_COMPAT  = T    GGA compatible to vasp.4.4-vasp.4.6
   LMAXPAW     = -100 max onsite density
   LMAXMIX     =    2 max onsite mixed and CHGCAR
   VOSKOWN=      0    Vosko Wilk Nusair interpolation
   ROPT   =   -0.00025  -0.00025  -0.00025
 Ionic relaxation
   EDIFFG = 0.1E-02   stopping-criterion for IOM
   NSW    =     99    number of steps for IOM
   NBLOCK =      1;   KBLOCK =     99    inner block; outer block 
   IBRION =      2    ionic relax: 0-MD 1-quasi-New 2-CG
   NFREE  =      1    steps in history (QN), initial steepest desc. (CG)
   ISIF   =      3    stress and relaxation
   IWAVPR =     11    prediction:  0-non 1-charg 2-wave 3-comb
   ISYM   =      2    0-nonsym 1-usesym 2-fastsym
   LCORR  =      T    Harris-Foulkes like correction to forces

   POTIM  = 0.5000    time-step for ionic-motion
   TEIN   =    0.0    initial temperature
   TEBEG  =    0.0;   TEEND  =   0.0 temperature during run
   SMASS  =  -3.00    Nose mass-parameter (am)
   estimated Nose-frequenzy (Omega)   =  0.10E-29 period in steps =****** mass=  -0.109E-26a.u.
   SCALEE = 1.0000    scale energy and forces
   NPACO  =    256;   APACO  = 16.0  distance and # of slots for P.C.
   PSTRESS=    0.0 pullay stress

  Mass of Ions in am
   POMASS =  52.00 30.97 32.07
  Ionic Valenz
   ZVAL   =   6.00  5.00  6.00
  Atomic Wigner-Seitz radii
   RWIGS  =  -1.00 -1.00 -1.00
  virtual crystal weights 
   VCA    =   1.00  1.00  1.00
   NELECT =      58.0000    total number of electrons
   NUPDOWN=      -1.0000    fix difference up-down

 DOS related values:
   EMIN   =  10.00;   EMAX   =-10.00  energy-range for DOS
   EFERMI =   0.00
   ISMEAR =    -5;   SIGMA  =   0.05  broadening in eV -4-tet -1-fermi 0-gaus

 Electronic relaxation 2 (details)
   IALGO  =     38    algorithm
   LDIAG  =      T    sub-space diagonalisation (order eigenvalues)
   LSUBROT=      F    optimize rotation matrix (better conditioning)
   TURBO    =      0    0=normal 1=particle mesh
   IRESTART =      0    0=no restart 2=restart with 2 vectors
   NREBOOT  =      0    no. of reboots
   NMIN     =      0    reboot dimension
   EREF     =   0.00    reference energy to select bands
   IMIX   =      4    mixing-type and parameters
     AMIX     =   0.40;   BMIX     =  1.00
     AMIX_MAG =   1.60;   BMIX_MAG =  1.00
     AMIN     =   0.01
     WC   =   100.;   INIMIX=   1;  MIXPRE=   1;  MAXMIX= -45

 Intra band minimization:
   WEIMIN = 0.0010     energy-eigenvalue tresh-hold
   EBREAK =  0.63E-06  absolut break condition
   DEPER  =   0.30     relativ break condition  

   TIME   =   0.40     timestep for ELM

  volume/ion in A,a.u.               =      96.88       653.80
  Fermi-wavevector in a.u.,A,eV,Ry     =   0.640424  1.210226  5.580332  0.410143
  Thomas-Fermi vector in A             =   1.706427

 Write flags
   LWAVE        =      F    write WAVECAR
   LDOWNSAMPLE  =      F    k-point downsampling of WAVECAR
   LCHARG       =      T    write CHGCAR
   LVTOT        =      F    write LOCPOT, total local potential
   LVHAR        =      F    write LOCPOT, Hartree potential only
   LELF         =      F    write electronic localiz. function (ELF)
   LORBIT       =     11    0 simple, 1 ext, 2 COOP (PROOUT), +10 PAW based schemes


 Dipole corrections
   LMONO  =      F    monopole corrections only (constant potential shift)
   LDIPOL =      F    correct potential (dipole corrections)
   IDIPOL =      0    1-x, 2-y, 3-z, 4-all directions 
   EPSILON=  1.0000000 bulk dielectric constant

 Exchange correlation treatment:
   GGA     =    BO    GGA type
   LEXCH   =    42    internal setting for exchange type
   VOSKOWN=      0    Vosko Wilk Nusair interpolation
   LHFCALC =     F    Hartree Fock is set to
   LHFONE  =     F    Hartree Fock one center treatment
   AEXX    =    0.0000 exact exchange contribution

 vdW DFT:
   LUSE_VDW   =     T    switch on vdW DFT
   Zab_VDW    =-.8491    correlation parameter
   PARAM1     =0.1833
   PARAM2     =0.2200
   PARAM3     =0.0000
   -- rVV10 --
   BPARAM     = 6.3000
   CPARAM     = 0.0093

 Linear response parameters
   LEPSILON=     F    determine dielectric tensor
   LRPA    =     F    only Hartree local field effects (RPA)
   LNABLA  =     F    use nabla operator in PAW spheres
   LVEL    =     F    velocity operator in full k-point grid
   LINTERFAST=   F  fast interpolation
   KINTER  =     0    interpolate to denser k-point grid
   CSHIFT  =0.1000    complex shift for real part using Kramers Kronig
   OMEGAMAX=  -1.0    maximum frequency
   DEG_THRESHOLD= 0.2000000E-02 threshold for treating states as degnerate
   RTIME   =   -0.100 relaxation time in fs
  (WPLASMAI=    0.000 imaginary part of plasma frequency in eV, 0.658/RTIME)
   DFIELD  = 0.0000000 0.0000000 0.0000000 field for delta impulse in time

 Orbital magnetization related:
   ORBITALMAG=     F  switch on orbital magnetization
   LCHIMAG   =     F  perturbation theory with respect to B field
   DQ        =  0.001000  dq finite difference perturbation B field
   LLRAUG    =     F  two centre corrections for induced B field



--------------------------------------------------------------------------------------------------------


 conjugate gradient relaxation of ions
   using selective dynamics as specified on POSCAR
 charge density and potential will be updated during run
 spin polarized calculation
 Variant of blocked Davidson
 Davidson routine will perform the subspace rotation
 perform sub-space diagonalisation
    after iterative eigenvector-optimisation
 modified Broyden-mixing scheme, WC =      100.0
 initial mixing is a Kerker type mixing with AMIX =  0.4000 and BMIX =      1.0000
 Hartree-type preconditioning will be used
 using additional bands           11
 real space projection scheme for non local part
 use partial core corrections
 calculate Harris-corrections to forces   (improved forces if not selfconsistent)
 use gradient corrections 
 use of overlap-Matrix (Vanderbilt PP)
 Fermi weights with tetrahedron method with Bloechl corrections


--------------------------------------------------------------------------------------------------------


  energy-cutoff  :      520.00
  volume of cell :      968.84
      direct lattice vectors                 reciprocal lattice vectors
     6.907777000 -0.000000000  0.000000000     0.144764372 -0.083579742  0.000000000
     3.453888000  5.982310000  0.000000000     0.000000000  0.167159509 -0.000000000
     0.000000000  0.000000000 23.444588000    -0.000000000  0.000000000  0.042653767

  length of vectors
     6.907777000  6.907776433 23.444588000     0.167159495  0.167159509  0.042653767



 k-points in units of 2pi/SCALE and weight: Kpoints from vasprun.xml                
   0.00000000  0.00000000  0.00000000       0.040
   0.02895287 -0.01671595  0.00000000       0.240
   0.05790575 -0.03343190  0.00000000       0.240
   0.05790575  0.00000000  0.00000000       0.240
  -0.05790575  0.06686380  0.00000000       0.240

 k-points in reciprocal lattice and weights: Kpoints from vasprun.xml                
   0.00000000  0.00000000  0.00000000       0.040
   0.20000000  0.00000000  0.00000000       0.240
   0.40000000  0.00000000  0.00000000       0.240
   0.40000000  0.20000000  0.00000000       0.240
  -0.40000000  0.20000000  0.00000000       0.240

 position of ions in fractional coordinates (direct lattice) 
   0.33333300  0.33333300  0.49992500
   0.66666700  0.66666700  0.50007500
   0.00000000  0.00000000  0.44821600
   0.00000000  0.00000000  0.55178400
   0.62635700  0.00042000  0.57375200
   0.00042000  0.37322400  0.57375200
   0.37322400  0.62635700  0.57375200
   0.37364300  0.99958000  0.42624800
   0.99958000  0.62677600  0.42624800
   0.62677600  0.37364300  0.42624800

 position of ions in cartesian coordinates  (Angst):
   3.45388488  1.99410134 11.72053566
   6.90778012  3.98820866 11.72405234
   0.00000000  0.00000000 10.50823946
   0.00000000  0.00000000 12.93634854
   4.32818511  0.00251257 13.45137925
   1.29197516  2.23274167 13.45137925
   4.74151509  3.74706174 13.45137925
   6.03347989  5.97979743  9.99320875
   9.06968984  3.74956833  9.99320875
   5.62014991  2.23524826  9.99320875



--------------------------------------------------------------------------------------------------------


 k-point  1 :   0.0000 0.0000 0.0000  plane waves:   26073
 k-point  2 :   0.2000 0.0000 0.0000  plane waves:   26070
 k-point  3 :   0.4000 0.0000 0.0000  plane waves:   26086
 k-point  4 :   0.4000 0.2000 0.0000  plane waves:   26085
 k-point  5 :  -0.4000 0.2000 0.0000  plane waves:   26115

 maximum and minimum number of plane-waves per node :     26115    26070

 maximum number of plane-waves:     26115
 maximum index in each direction: 
   IXMAX=   13   IYMAX=   12   IZMAX=   43
   IXMIN=  -13   IYMIN=  -13   IZMIN=  -43


 serial   3D FFT for wavefunctions
 parallel 3D FFT for charge:
    minimum data exchange during FFTs selected (reduces bandwidth)


 total amount of memory used by VASP MPI-rank0   167545. kBytes
=======================================================================

   base      :      30000. kBytes
   nonlr-proj:       5770. kBytes
   fftplans  :      20284. kBytes
   grid      :      90201. kBytes
   one-center:        311. kBytes
   wavefun   :      20979. kBytes

     INWAV:  cpu time    0.0000: real time    0.0007
 Broyden mixing: mesh for mixing (old mesh)
   NGX = 25   NGY = 25   NGZ = 87
  (NGX  =108   NGY  =108   NGZ  =360)
  gives a total of  54375 points

 initial charge density was supplied:
 charge density of overlapping atoms calculated
 number of electron      58.0000000 magnetization       6.0000000
 keeping initial charge density in first step


--------------------------------------------------------------------------------------------------------


 Maximum index for non-local projection operator         7247
 Maximum index for augmentation-charges         3407 (set IRDMAX)


--------------------------------------------------------------------------------------------------------


 First call to EWALD:  gamma=   0.179
 Maximum number of real-space cells 4x 4x 1
 Maximum number of reciprocal cells 2x 2x 6

    FEWALD:  cpu time    0.0040: real time    0.0019


--------------------------------------- Iteration      1(   1)  ---------------------------------------


vdW kernel read from vdw_kernel.bindat
  0.0000  0.2424  0.5071  0.7962  1.1119  1.4567  1.8333  2.2446  2.6937  3.1842
  3.7199  4.3049  4.9438  5.6415  6.4036  7.2358  8.1446  9.1372 10.2212 11.4050
 12.6979 14.1099 15.6519 17.3360 19.1751 21.1837 23.3773 25.7729 28.3892 31.2465
 34.3669 37.7748 41.4965 45.5611 50.0000

    POTLOK:  cpu time  120.4760: real time  121.9352
    SETDIJ:  cpu time    0.0480: real time    0.0490
     EDDAV:  cpu time   20.3960: real time   20.5426
 BZINTS: Fermi energy:  6.299384; 58.000000 electrons
         Band energy:  22.210848;  BLOECHL correction: -0.060049
       DOS:  cpu time    0.0040: real time    0.0042
    --------------------------------------------
      LOOP:  cpu time  140.9240: real time  142.5309

 eigenvalue-minimisations  :   800
 total energy-change (2. order) : 0.4590142E+03  (-0.1671836E+04)
 number of electron      58.0000000 magnetization       6.0000000
 augmentation part       58.0000000 magnetization       6.0000000

 Free energy of the ion-electron system (eV)
  ---------------------------------------------------
  alpha Z        PSCENC =        19.68084336
  Ewald energy   TEWEN  =      6462.22987265
  -Hartree energ DENC   =     -8734.63455163
  -exchange      EXHF   =         0.00000000
  -V(xc)+E(xc)   XCENC  =        32.01792175
  PAW double counting   =      1142.67134065    -1061.63574991
  entropy T*S    EENTRO =         0.00000000
  eigenvalues    EBANDS =        22.21084844
  atomic energy  EATOM  =      2576.47363623
  Solvation  Ediel_sol  =         0.00000000
  ---------------------------------------------------
  free energy    TOTEN  =       459.01416153 eV

  energy without entropy =      459.01416153  energy(sigma->0) =      459.01416153


--------------------------------------------------------------------------------------------------------




--------------------------------------- Iteration      1(   2)  ---------------------------------------


     EDDAV:  cpu time   25.7440: real time   25.8634
 BZINTS: Fermi energy: -0.019156; 58.000000 electrons
         Band energy:-378.759565;  BLOECHL correction: -0.143153
       DOS:  cpu time    0.0040: real time    0.0040
    --------------------------------------------
      LOOP:  cpu time   25.7480: real time   25.8675

 eigenvalue-minimisations  :  1072
 total energy-change (2. order) :-0.4009704E+03  (-0.3828904E+03)
 number of electron      58.0000000 magnetization       6.0000000
 augmentation part       58.0000000 magnetization       6.0000000

 Free energy of the ion-electron system (eV)
  ---------------------------------------------------
  alpha Z        PSCENC =        19.68084336
  Ewald energy   TEWEN  =      6462.22987265
  -Hartree energ DENC   =     -8734.63455163
  -exchange      EXHF   =         0.00000000
  -V(xc)+E(xc)   XCENC  =        32.01792175
  PAW double counting   =      1142.67134065    -1061.63574991
  entropy T*S    EENTRO =         0.00000000
  eigenvalues    EBANDS =      -378.75956512
  atomic energy  EATOM  =      2576.47363623
  Solvation  Ediel_sol  =         0.00000000
  ---------------------------------------------------
  free energy    TOTEN  =        58.04374797 eV

  energy without entropy =       58.04374797  energy(sigma->0) =       58.04374797


--------------------------------------------------------------------------------------------------------




--------------------------------------- Iteration      1(   3)  ---------------------------------------


     EDDAV:  cpu time   27.6320: real time   27.7517
 BZINTS: Fermi energy: -2.148087; 57.972202 electrons
         Band energy:-484.783207;  BLOECHL correction: -0.001324
       DOS:  cpu time    0.0040: real time    0.0053
    --------------------------------------------
      LOOP:  cpu time   27.6360: real time   27.7570

 eigenvalue-minimisations  :  1176
 total energy-change (2. order) :-0.1060236E+03  (-0.1015646E+03)
 number of electron      58.0000000 magnetization       6.0000000
 augmentation part       58.0000000 magnetization       6.0000000

 Free energy of the ion-electron system (eV)
  ---------------------------------------------------
  alpha Z        PSCENC =        19.68084336
  Ewald energy   TEWEN  =      6462.22987265
  -Hartree energ DENC   =     -8734.63455163
  -exchange      EXHF   =         0.00000000
  -V(xc)+E(xc)   XCENC  =        32.01792175
  PAW double counting   =      1142.67134065    -1061.63574991
  entropy T*S    EENTRO =         0.00000000
  eigenvalues    EBANDS =      -484.78320697
  atomic energy  EATOM  =      2576.47363623
  Solvation  Ediel_sol  =         0.00000000
  ---------------------------------------------------
  free energy    TOTEN  =       -47.97989387 eV

  energy without entropy =      -47.97989387  energy(sigma->0) =      -47.97989387


--------------------------------------------------------------------------------------------------------




--------------------------------------- Iteration      1(   4)  ---------------------------------------


     EDDAV:  cpu time   27.8600: real time   28.1542
 BZINTS: Fermi energy: -2.395575; 58.000000 electrons
         Band energy:-493.873029;  BLOECHL correction: -0.006923
       DOS:  cpu time    0.0040: real time    0.0041
    --------------------------------------------
      LOOP:  cpu time   27.8640: real time   28.1583

 eigenvalue-minimisations  :  1200
 total energy-change (2. order) :-0.9089823E+01  (-0.8351650E+01)
 number of electron      58.0000000 magnetization       6.0000000
 augmentation part       58.0000000 magnetization       6.0000000

 Free energy of the ion-electron system (eV)
  ---------------------------------------------------
  alpha Z        PSCENC =        19.68084336
  Ewald energy   TEWEN  =      6462.22987265
  -Hartree energ DENC   =     -8734.63455163
  -exchange      EXHF   =         0.00000000
  -V(xc)+E(xc)   XCENC  =        32.01792175
  PAW double counting   =      1142.67134065    -1061.63574991
  entropy T*S    EENTRO =         0.00000000
  eigenvalues    EBANDS =      -493.87302947
  atomic energy  EATOM  =      2576.47363623
  Solvation  Ediel_sol  =         0.00000000
  ---------------------------------------------------
  free energy    TOTEN  =       -57.06971638 eV

  energy without entropy =      -57.06971638  energy(sigma->0) =      -57.06971638


--------------------------------------------------------------------------------------------------------




--------------------------------------- Iteration      1(   5)  ---------------------------------------


     EDDAV:  cpu time   49.5640: real time   50.5554
 BZINTS: Fermi energy: -2.452644; 58.000000 electrons
         Band energy:-494.452332;  BLOECHL correction: -0.010619
       DOS:  cpu time    0.0080: real time    0.0056
    CHARGE:  cpu time    3.1320: real time    3.4735
    MIXING:  cpu time    0.0440: real time    0.0445
    --------------------------------------------
      LOOP:  cpu time   52.7480: real time   54.0791

 eigenvalue-minimisations  :  1248
 total energy-change (2. order) :-0.5793024E+00  (-0.5434324E+00)
 number of electron      57.9999993 magnetization       5.5098704
 augmentation part       -5.5841657 magnetization       4.9409394

 Broyden mixing:
  rms(total) = 0.31534E+01    rms(broyden)= 0.31534E+01
  rms(prec ) = 0.35398E+01
  weight for this iteration     100.00

 Free energy of the ion-electron system (eV)
  ---------------------------------------------------
  alpha Z        PSCENC =        19.68084336
  Ewald energy   TEWEN  =      6462.22987265
  -Hartree energ DENC   =     -8734.63455163
  -exchange      EXHF   =         0.00000000
  -V(xc)+E(xc)   XCENC  =        32.01792175
  PAW double counting   =      1142.67134065    -1061.63574991
  entropy T*S    EENTRO =         0.00000000
  eigenvalues    EBANDS =      -494.45233183
  atomic energy  EATOM  =      2576.47363623
  Solvation  Ediel_sol  =         0.00000000
  ---------------------------------------------------
  free energy    TOTEN  =       -57.64901873 eV

  energy without entropy =      -57.64901873  energy(sigma->0) =      -57.64901873


--------------------------------------------------------------------------------------------------------




--------------------------------------- Iteration      1(   6)  ---------------------------------------


    POTLOK:  cpu time  100.9960: real time  101.5733
    SETDIJ:  cpu time    0.0600: real time    0.0578
     EDDAV:  cpu time   47.1760: real time   47.6307
 BZINTS: Fermi energy: -4.907875; 58.000000 electrons
         Band energy:-667.124876;  BLOECHL correction: -0.019513
       DOS:  cpu time    0.0040: real time    0.0049
    CHARGE:  cpu time    2.1200: real time    2.1283
    MIXING:  cpu time    0.0640: real time    0.0616
    --------------------------------------------
      LOOP:  cpu time  150.4200: real time  151.4565

 eigenvalue-minimisations  :  1192
 total energy-change (2. order) :-0.1161736E+03  (-0.5347328E+02)
 number of electron      57.9999991 magnetization       5.4382607
 augmentation part       10.0091576 magnetization       1.7996705

 Broyden mixing:
  rms(total) = 0.68089E+01    rms(broyden)= 0.68088E+01
  rms(prec ) = 0.76815E+01
  weight for this iteration     100.00

 eigenvalues of (default mixing * dielectric matrix)
  average eigenvalue GAMMA=   0.3321
  0.3321

 Free energy of the ion-electron system (eV)
  ---------------------------------------------------
  alpha Z        PSCENC =        19.68084336
  Ewald energy   TEWEN  =      6462.22987265
  -Hartree energ DENC   =     -8690.02242396
  -exchange      EXHF   =         0.00000000
  -V(xc)+E(xc)   XCENC  =        32.48821672
  PAW double counting   =      1051.04239375     -958.59025529
  entropy T*S    EENTRO =         0.00000000
  eigenvalues    EBANDS =      -667.12487566
  atomic energy  EATOM  =      2576.47363623
  Solvation  Ediel_sol  =         0.00000000
  ---------------------------------------------------
  free energy    TOTEN  =      -173.82259219 eV

  energy without entropy =     -173.82259219  energy(sigma->0) =     -173.82259219


--------------------------------------------------------------------------------------------------------




--------------------------------------- Iteration      1(   7)  ---------------------------------------


    POTLOK:  cpu time   98.5040: real time   98.7950
    SETDIJ:  cpu time    0.0880: real time    0.0873
     EDDAV:  cpu time   40.3600: real time   40.6816
 BZINTS: Fermi energy: -4.432147; 58.000000 electrons
         Band energy:-490.292838;  BLOECHL correction: -0.003098
       DOS:  cpu time    0.0040: real time    0.0049
    CHARGE:  cpu time    2.1200: real time    2.1262
    MIXING:  cpu time    0.0480: real time    0.0486
    --------------------------------------------
      LOOP:  cpu time  141.1240: real time  141.7437

 eigenvalue-minimisations  :  1056
 total energy-change (2. order) : 0.1318386E+03  (-0.1954612E+02)
 number of electron      57.9999993 magnetization       5.3806026
 augmentation part        2.4587722 magnetization       2.8102411

 Broyden mixing:
  rms(total) = 0.20425E+01    rms(broyden)= 0.20425E+01
  rms(prec ) = 0.23113E+01
  weight for this iteration     100.00

 eigenvalues of (default mixing * dielectric matrix)
  average eigenvalue GAMMA=   0.4093
  0.4093  0.4093

 Free energy of the ion-electron system (eV)
  ---------------------------------------------------
  alpha Z        PSCENC =        19.68084336
  Ewald energy   TEWEN  =      6462.22987265
  -Hartree energ DENC   =     -8722.43922236
  -exchange      EXHF   =         0.00000000
  -V(xc)+E(xc)   XCENC  =        31.47395151
  PAW double counting   =      1122.01051903    -1041.12076699
  entropy T*S    EENTRO =         0.00000000
  eigenvalues    EBANDS =      -490.29283784
  atomic energy  EATOM  =      2576.47363623
  Solvation  Ediel_sol  =         0.00000000
  ---------------------------------------------------
  free energy    TOTEN  =       -41.98400442 eV

  energy without entropy =      -41.98400442  energy(sigma->0) =      -41.98400442


--------------------------------------------------------------------------------------------------------




--------------------------------------- Iteration      1(   8)  ---------------------------------------


    POTLOK:  cpu time  100.0200: real time  100.7219
    SETDIJ:  cpu time    0.0800: real time    0.0812
     EDDAV:  cpu time   42.4480: real time   43.1188
 BZINTS: Fermi energy: -3.870376; 58.000000 electrons
         Band energy:-491.496632;  BLOECHL correction: -0.002026
       DOS:  cpu time    0.0040: real time    0.0052
    CHARGE:  cpu time    2.1000: real time    2.1131
    MIXING:  cpu time    0.0600: real time    0.0596
    --------------------------------------------
      LOOP:  cpu time  144.7120: real time  146.0999

 eigenvalue-minimisations  :  1168
 total energy-change (2. order) :-0.3806732E+01  (-0.6860076E+01)
 number of electron      57.9999993 magnetization       5.3283866
 augmentation part       -2.2124211 magnetization       3.9386405

 Broyden mixing:
  rms(total) = 0.12273E+01    rms(broyden)= 0.12273E+01
  rms(prec ) = 0.13013E+01
  weight for this iteration     100.00

 eigenvalues of (default mixing * dielectric matrix)
  average eigenvalue GAMMA=   0.4271
  0.4606  0.4104  0.4104

 Free energy of the ion-electron system (eV)
  ---------------------------------------------------
  alpha Z        PSCENC =        19.68084336
  Ewald energy   TEWEN  =      6462.22987265
  -Hartree energ DENC   =     -8724.73705491
  -exchange      EXHF   =         0.00000000
  -V(xc)+E(xc)   XCENC  =        31.17450174
  PAW double counting   =      1130.54361372    -1049.65951671
  entropy T*S    EENTRO =         0.00000000
  eigenvalues    EBANDS =      -491.49663246
  atomic energy  EATOM  =      2576.47363623
  Solvation  Ediel_sol  =         0.00000000
  ---------------------------------------------------
  free energy    TOTEN  =       -45.79073638 eV

  energy without entropy =      -45.79073638  energy(sigma->0) =      -45.79073638


--------------------------------------------------------------------------------------------------------




--------------------------------------- Iteration      1(   9)  ---------------------------------------


    POTLOK:  cpu time   99.2520: real time   99.5577
    SETDIJ:  cpu time    0.0640: real time    0.0619
     EDDAV:  cpu time   41.8800: real time   42.4439
 BZINTS: Fermi energy: -4.145507; 58.000000 electrons
         Band energy:-497.934138;  BLOECHL correction:  0.000000
       DOS:  cpu time    0.0040: real time    0.0025
    CHARGE:  cpu time    2.1040: real time    2.1477
    MIXING:  cpu time    0.0520: real time    0.0510
    --------------------------------------------
      LOOP:  cpu time  143.3560: real time  144.2646

 eigenvalue-minimisations  :  1112
 total energy-change (2. order) :-0.1125615E+01  (-0.1400317E+01)
 number of electron      57.9999993 magnetization       5.4520372
 augmentation part        0.3444677 magnetization       2.9158274

 Broyden mixing:
  rms(total) = 0.13697E+01    rms(broyden)= 0.13697E+01
  rms(prec ) = 0.14427E+01
  weight for this iteration     100.00

 eigenvalues of (default mixing * dielectric matrix)
  average eigenvalue GAMMA=   0.4029
  0.4951  0.4951  0.3108  0.3108

 Free energy of the ion-electron system (eV)
  ---------------------------------------------------
  alpha Z        PSCENC =        19.68084336
  Ewald energy   TEWEN  =      6462.22987265
  -Hartree energ DENC   =     -8720.47375127
  -exchange      EXHF   =         0.00000000
  -V(xc)+E(xc)   XCENC  =        31.61484262
  PAW double counting   =      1120.82835037    -1039.33600742
  entropy T*S    EENTRO =         0.00000000
  eigenvalues    EBANDS =      -497.93413834
  atomic energy  EATOM  =      2576.47363623
  Solvation  Ediel_sol  =         0.00000000
  ---------------------------------------------------
  free energy    TOTEN  =       -46.91635180 eV

  energy without entropy =      -46.91635180  energy(sigma->0) =      -46.91635180


--------------------------------------------------------------------------------------------------------




--------------------------------------- Iteration      1(  10)  ---------------------------------------


    POTLOK:  cpu time   98.3840: real time   99.3820
    SETDIJ:  cpu time    0.0920: real time    0.0944
     EDDAV:  cpu time   45.3440: real time   45.7346
 BZINTS: Fermi energy: -4.071006; 58.000000 electrons
         Band energy:-496.783448;  BLOECHL correction: -0.010976
       DOS:  cpu time    0.0040: real time    0.0048
    CHARGE:  cpu time    2.1800: real time    2.1804
    MIXING:  cpu time    0.0560: real time    0.0570
    --------------------------------------------
      LOOP:  cpu time  146.0600: real time  147.4531

 eigenvalue-minimisations  :  1208
 total energy-change (2. order) :-0.5349133E+00  (-0.6912655E-01)
 number of electron      57.9999993 magnetization       5.7189517
 augmentation part        0.0209460 magnetization       3.6146730

 Broyden mixing:
  rms(total) = 0.11295E+01    rms(broyden)= 0.11295E+01
  rms(prec ) = 0.11822E+01
  weight for this iteration     100.00

 eigenvalues of (default mixing * dielectric matrix)
  average eigenvalue GAMMA=   0.6561
  1.0375  1.0375  0.3647  0.3647  0.4760

 Free energy of the ion-electron system (eV)
  ---------------------------------------------------
  alpha Z        PSCENC =        19.68084336
  Ewald energy   TEWEN  =      6462.22987265
  -Hartree energ DENC   =     -8722.64698389
  -exchange      EXHF   =         0.00000000
  -V(xc)+E(xc)   XCENC  =        32.13302595
  PAW double counting   =      1123.40711376    -1041.94532537
  entropy T*S    EENTRO =         0.00000000
  eigenvalues    EBANDS =      -496.78344782
  atomic energy  EATOM  =      2576.47363623
  Solvation  Ediel_sol  =         0.00000000
  ---------------------------------------------------
  free energy    TOTEN  =       -47.45126514 eV

  energy without entropy =      -47.45126514  energy(sigma->0) =      -47.45126514


--------------------------------------------------------------------------------------------------------




--------------------------------------- Iteration      1(  11)  ---------------------------------------


    POTLOK:  cpu time   99.7520: real time  100.3007
    SETDIJ:  cpu time    0.0840: real time    0.0847
     EDDAV:  cpu time   45.7400: real time   46.3903
 BZINTS: Fermi energy: -4.043857; 58.000000 electrons
         Band energy:-496.492857;  BLOECHL correction: -0.010498
       DOS:  cpu time    0.0040: real time    0.0055
    CHARGE:  cpu time    2.0240: real time    2.0458
    MIXING:  cpu time    0.0520: real time    0.0529
    --------------------------------------------
      LOOP:  cpu time  147.6560: real time  148.8798

 eigenvalue-minimisations  :  1272
 total energy-change (2. order) :-0.7895509E+00  (-0.3703243E-01)
 number of electron      57.9999993 magnetization       5.8628589
 augmentation part        0.0033576 magnetization       4.4233117

 Broyden mixing:
  rms(total) = 0.72988E+00    rms(broyden)= 0.72988E+00
  rms(prec ) = 0.79866E+00
  weight for this iteration     100.00

 eigenvalues of (default mixing * dielectric matrix)
  average eigenvalue GAMMA=   0.7195
  1.1676  1.1676  0.3783  0.3783  0.6128  0.6128

 Free energy of the ion-electron system (eV)
  ---------------------------------------------------
  alpha Z        PSCENC =        19.68084336
  Ewald energy   TEWEN  =      6462.22987265
  -Hartree energ DENC   =     -8725.48742611
  -exchange      EXHF   =         0.00000000
  -V(xc)+E(xc)   XCENC  =        34.20946787
  PAW double counting   =      1125.50057817    -1044.35493079
  entropy T*S    EENTRO =         0.00000000
  eigenvalues    EBANDS =      -496.49285742
  atomic energy  EATOM  =      2576.47363623
  Solvation  Ediel_sol  =         0.00000000
  ---------------------------------------------------
  free energy    TOTEN  =       -48.24081605 eV

  energy without entropy =      -48.24081605  energy(sigma->0) =      -48.24081605


--------------------------------------------------------------------------------------------------------




--------------------------------------- Iteration      1(  12)  ---------------------------------------


    POTLOK:  cpu time   99.2960: real time  100.1310
    SETDIJ:  cpu time    0.0800: real time    0.0834
     EDDAV:  cpu time   46.4880: real time   47.4903
 BZINTS: Fermi energy: -4.084989; 58.000000 electrons
         Band energy:-497.947817;  BLOECHL correction: -0.011500
       DOS:  cpu time    0.0080: real time    0.0055
    CHARGE:  cpu time    2.1080: real time    2.1101
    MIXING:  cpu time    0.0520: real time    0.0531
    --------------------------------------------
      LOOP:  cpu time  148.0320: real time  149.8734

 eigenvalue-minimisations  :  1304
 total energy-change (2. order) :-0.1457777E-01  (-0.3710133E-01)
 number of electron      57.9999992 magnetization       5.8840413
 augmentation part       -0.0045122 magnetization       4.9246015

 Broyden mixing:
  rms(total) = 0.53779E+00    rms(broyden)= 0.53779E+00
  rms(prec ) = 0.61205E+00
  weight for this iteration     100.00

 eigenvalues of (default mixing * dielectric matrix)
  average eigenvalue GAMMA=   0.8154
  1.2602  1.2602  0.9288  0.9288  0.3722  0.3722  0.5855

 Free energy of the ion-electron system (eV)
  ---------------------------------------------------
  alpha Z        PSCENC =        19.68084336
  Ewald energy   TEWEN  =      6462.22987265
  -Hartree energ DENC   =     -8725.79369107
  -exchange      EXHF   =         0.00000000
  -V(xc)+E(xc)   XCENC  =        36.31120063
  PAW double counting   =      1124.61906167    -1043.82850029
  entropy T*S    EENTRO =         0.00000000
  eigenvalues    EBANDS =      -497.94781699
  atomic energy  EATOM  =      2576.47363623
  Solvation  Ediel_sol  =         0.00000000
  ---------------------------------------------------
  free energy    TOTEN  =       -48.25539382 eV

  energy without entropy =      -48.25539382  energy(sigma->0) =      -48.25539382


--------------------------------------------------------------------------------------------------------




--------------------------------------- Iteration      1(  13)  ---------------------------------------


    POTLOK:  cpu time  100.5560: real time  101.1617
    SETDIJ:  cpu time    0.0800: real time    0.0814
     EDDAV:  cpu time   43.0200: real time   43.8690
 BZINTS: Fermi energy: -4.163617; 58.000000 electrons
         Band energy:-498.828079;  BLOECHL correction: -0.013236
       DOS:  cpu time    0.0040: real time    0.0047
    CHARGE:  cpu time    2.0960: real time    2.0983
    MIXING:  cpu time    0.0680: real time    0.0668
    --------------------------------------------
      LOOP:  cpu time  145.8240: real time  147.2820

 eigenvalue-minimisations  :  1360
 total energy-change (2. order) : 0.3382845E+00  (-0.2878483E-01)
 number of electron      57.9999992 magnetization       5.7934797
 augmentation part       -0.2598020 magnetization       4.9560294

 Broyden mixing:
  rms(total) = 0.37321E+00    rms(broyden)= 0.37321E+00
  rms(prec ) = 0.42198E+00
  weight for this iteration     100.00

 eigenvalues of (default mixing * dielectric matrix)
  average eigenvalue GAMMA=   0.9029
  1.2629  1.2629  1.3210  0.3731  0.3731  0.9642  0.9642  0.7021

 Free energy of the ion-electron system (eV)
  ---------------------------------------------------
  alpha Z        PSCENC =        19.68084336
  Ewald energy   TEWEN  =      6462.22987265
  -Hartree energ DENC   =     -8725.21399195
  -exchange      EXHF   =         0.00000000
  -V(xc)+E(xc)   XCENC  =        37.25731103
  PAW double counting   =      1123.67997643    -1043.19667850
  entropy T*S    EENTRO =         0.00000000
  eigenvalues    EBANDS =      -498.82807858
  atomic energy  EATOM  =      2576.47363623
  Solvation  Ediel_sol  =         0.00000000
  ---------------------------------------------------
  free energy    TOTEN  =       -47.91710935 eV

  energy without entropy =      -47.91710935  energy(sigma->0) =      -47.91710935


--------------------------------------------------------------------------------------------------------




--------------------------------------- Iteration      1(  14)  ---------------------------------------


    POTLOK:  cpu time  101.6840: real time  102.8016
    SETDIJ:  cpu time    0.0840: real time    0.0814
     EDDAV:  cpu time   38.1080: real time   38.4822
 BZINTS: Fermi energy: -4.205535; 58.000000 electrons
         Band energy:-499.234177;  BLOECHL correction: -0.015090
       DOS:  cpu time    0.0040: real time    0.0050
    CHARGE:  cpu time    2.0640: real time    2.0932
    MIXING:  cpu time    0.0560: real time    0.0598
    --------------------------------------------
      LOOP:  cpu time  142.0000: real time  143.5232

 eigenvalue-minimisations  :  1256
 total energy-change (2. order) : 0.8346696E-01  (-0.1210367E-01)
 number of electron      57.9999992 magnetization       5.7323013
 augmentation part       -0.4870426 magnetization       5.0635184

 Broyden mixing:
  rms(total) = 0.23126E+00    rms(broyden)= 0.23126E+00
  rms(prec ) = 0.26214E+00
  weight for this iteration     100.00

 eigenvalues of (default mixing * dielectric matrix)
  average eigenvalue GAMMA=   0.9317
  1.3026  1.3026  1.4530  1.4530  0.7972  0.7972  0.3731  0.3731  0.5332

 Free energy of the ion-electron system (eV)
  ---------------------------------------------------
  alpha Z        PSCENC =        19.68084336
  Ewald energy   TEWEN  =      6462.22987265
  -Hartree energ DENC   =     -8724.14127522
  -exchange      EXHF   =         0.00000000
  -V(xc)+E(xc)   XCENC  =        36.56093976
  PAW double counting   =      1124.25285733    -1043.65633993
  entropy T*S    EENTRO =         0.00000000
  eigenvalues    EBANDS =      -499.23417655
  atomic energy  EATOM  =      2576.47363623
  Solvation  Ediel_sol  =         0.00000000
  ---------------------------------------------------
  free energy    TOTEN  =       -47.83364238 eV

  energy without entropy =      -47.83364238  energy(sigma->0) =      -47.83364238


--------------------------------------------------------------------------------------------------------




--------------------------------------- Iteration      1(  15)  ---------------------------------------


    POTLOK:  cpu time  101.8640: real time  102.2390
    SETDIJ:  cpu time    0.0760: real time    0.0736
     EDDAV:  cpu time   35.7040: real time   36.0610
 BZINTS: Fermi energy: -4.215834; 58.000000 electrons
         Band energy:-498.972992;  BLOECHL correction: -0.016844
       DOS:  cpu time    0.0040: real time    0.0049
    CHARGE:  cpu time    2.0760: real time    2.0937
    MIXING:  cpu time    0.0800: real time    0.0783
    --------------------------------------------
      LOOP:  cpu time  139.8040: real time  140.5504

 eigenvalue-minimisations  :  1192
 total energy-change (2. order) : 0.1246339E-01  (-0.5603541E-02)
 number of electron      57.9999992 magnetization       5.7008835
 augmentation part       -0.6002748 magnetization       5.3394945

 Broyden mixing:
  rms(total) = 0.16870E+00    rms(broyden)= 0.16870E+00
  rms(prec ) = 0.18985E+00
  weight for this iteration     100.00

 eigenvalues of (default mixing * dielectric matrix)
  average eigenvalue GAMMA=   0.8908
  1.3011  1.3011  1.4806  1.4806  0.8104  0.8104  0.3729  0.3729  0.4890  0.4890

 Free energy of the ion-electron system (eV)
  ---------------------------------------------------
  alpha Z        PSCENC =        19.68084336
  Ewald energy   TEWEN  =      6462.22987265
  -Hartree energ DENC   =     -8724.08938051
  -exchange      EXHF   =         0.00000000
  -V(xc)+E(xc)   XCENC  =        36.21820684
  PAW double counting   =      1125.07653327    -1044.43789886
  entropy T*S    EENTRO =         0.00000000
  eigenvalues    EBANDS =      -498.97299197
  atomic energy  EATOM  =      2576.47363623
  Solvation  Ediel_sol  =         0.00000000
  ---------------------------------------------------
  free energy    TOTEN  =       -47.82117899 eV

  energy without entropy =      -47.82117899  energy(sigma->0) =      -47.82117899


--------------------------------------------------------------------------------------------------------




--------------------------------------- Iteration      1(  16)  ---------------------------------------


    POTLOK:  cpu time  101.8440: real time  102.2019
    SETDIJ:  cpu time    0.0760: real time    0.0767
     EDDAV:  cpu time   34.6880: real time   35.0397
 BZINTS: Fermi energy: -4.199159; 58.000000 electrons
         Band energy:-498.697137;  BLOECHL correction: -0.013232
       DOS:  cpu time    0.0040: real time    0.0052
    CHARGE:  cpu time    2.0880: real time    2.1071
    MIXING:  cpu time    0.0680: real time    0.0710
    --------------------------------------------
      LOOP:  cpu time  138.7680: real time  139.5018

 eigenvalue-minimisations  :  1200
 total energy-change (2. order) : 0.8973490E-02  (-0.1685706E-02)
 number of electron      57.9999992 magnetization       5.7803764
 augmentation part       -0.6323063 magnetization       5.8393336

 Broyden mixing:
  rms(total) = 0.16158E+00    rms(broyden)= 0.16158E+00
  rms(prec ) = 0.17808E+00
  weight for this iteration     100.00

 eigenvalues of (default mixing * dielectric matrix)
  average eigenvalue GAMMA=   0.9161
  1.2938  1.2938  1.5411  1.5411  0.8715  0.8715  0.3730  0.3730  0.6088  0.6088
  0.7009

 Free energy of the ion-electron system (eV)
  ---------------------------------------------------
  alpha Z        PSCENC =        19.68084336
  Ewald energy   TEWEN  =      6462.22987265
  -Hartree energ DENC   =     -8724.57040669
  -exchange      EXHF   =         0.00000000
  -V(xc)+E(xc)   XCENC  =        36.46484583
  PAW double counting   =      1125.85882105    -1045.25268105
  entropy T*S    EENTRO =         0.00000000
  eigenvalues    EBANDS =      -498.69713688
  atomic energy  EATOM  =      2576.47363623
  Solvation  Ediel_sol  =         0.00000000
  ---------------------------------------------------
  free energy    TOTEN  =       -47.81220550 eV

  energy without entropy =      -47.81220550  energy(sigma->0) =      -47.81220550


--------------------------------------------------------------------------------------------------------




--------------------------------------- Iteration      1(  17)  ---------------------------------------


    POTLOK:  cpu time  102.8200: real time  103.4990
    SETDIJ:  cpu time    0.0640: real time    0.0646
     EDDAV:  cpu time   27.6080: real time   27.8083
 BZINTS: Fermi energy: -4.216161; 58.000000 electrons
         Band energy:-499.031829;  BLOECHL correction: -0.016895
       DOS:  cpu time    0.0000: real time    0.0044
    CHARGE:  cpu time    2.1040: real time    2.1176
    MIXING:  cpu time    0.0720: real time    0.0710
    --------------------------------------------
      LOOP:  cpu time  132.6680: real time  133.5650

 eigenvalue-minimisations  :  1024
 total energy-change (2. order) :-0.1400961E-02  (-0.1342269E-02)
 number of electron      57.9999992 magnetization       5.9537006
 augmentation part       -0.6113296 magnetization       5.6351855

 Broyden mixing:
  rms(total) = 0.16208E+00    rms(broyden)= 0.16208E+00
  rms(prec ) = 0.18159E+00
  weight for this iteration     100.00

 eigenvalues of (default mixing * dielectric matrix)
  average eigenvalue GAMMA=   1.1309
  2.6576  1.2803  1.2803  1.8711  1.8711  0.3730  0.3730  0.9700  0.9001  0.6990
  0.6990  0.5966

 Free energy of the ion-electron system (eV)
  ---------------------------------------------------
  alpha Z        PSCENC =        19.68084336
  Ewald energy   TEWEN  =      6462.22987265
  -Hartree energ DENC   =     -8724.14517704
  -exchange      EXHF   =         0.00000000
  -V(xc)+E(xc)   XCENC  =        36.38045274
  PAW double counting   =      1125.28209301    -1044.68349871
  entropy T*S    EENTRO =         0.00000000
  eigenvalues    EBANDS =      -499.03182870
  atomic energy  EATOM  =      2576.47363623
  Solvation  Ediel_sol  =         0.00000000
  ---------------------------------------------------
  free energy    TOTEN  =       -47.81360646 eV

  energy without entropy =      -47.81360646  energy(sigma->0) =      -47.81360646


--------------------------------------------------------------------------------------------------------




--------------------------------------- Iteration      1(  18)  ---------------------------------------


    POTLOK:  cpu time  103.6320: real time  104.1013
    SETDIJ:  cpu time    0.0920: real time    0.0919
     EDDAV:  cpu time   33.1040: real time   33.4894
 BZINTS: Fermi energy: -4.219040; 58.000000 electrons
         Band energy:-499.173183;  BLOECHL correction: -0.012642
       DOS:  cpu time    0.0040: real time    0.0049
    CHARGE:  cpu time    2.0280: real time    2.0497
    MIXING:  cpu time    0.0800: real time    0.0794
    --------------------------------------------
      LOOP:  cpu time  138.9400: real time  139.8166

 eigenvalue-minimisations  :  1304
 total energy-change (2. order) : 0.1881610E-01  (-0.3837210E-02)
 number of electron      57.9999992 magnetization       5.9557131
 augmentation part       -0.6464464 magnetization       4.7957294

 Broyden mixing:
  rms(total) = 0.13064E+00    rms(broyden)= 0.13064E+00
  rms(prec ) = 0.14850E+00
  weight for this iteration     100.00

 eigenvalues of (default mixing * dielectric matrix)
  average eigenvalue GAMMA=   1.1077
  2.4416  2.1722  1.9396  1.2815  1.2815  1.0573  0.3730  0.3730  0.6963  0.6963
  0.7919  0.6482  0.6482

 Free energy of the ion-electron system (eV)
  ---------------------------------------------------
  alpha Z        PSCENC =        19.68084336
  Ewald energy   TEWEN  =      6462.22987265
  -Hartree energ DENC   =     -8723.80409060
  -exchange      EXHF   =         0.00000000
  -V(xc)+E(xc)   XCENC  =        36.24001402
  PAW double counting   =      1125.28502587    -1044.72690914
  entropy T*S    EENTRO =         0.00000000
  eigenvalues    EBANDS =      -499.17318275
  atomic energy  EATOM  =      2576.47363623
  Solvation  Ediel_sol  =         0.00000000
  ---------------------------------------------------
  free energy    TOTEN  =       -47.79479036 eV

  energy without entropy =      -47.79479036  energy(sigma->0) =      -47.79479036


--------------------------------------------------------------------------------------------------------




--------------------------------------- Iteration      1(  19)  ---------------------------------------


    POTLOK:  cpu time  102.9520: real time  103.6032
    SETDIJ:  cpu time    0.0480: real time    0.0507
     EDDAV:  cpu time   26.9280: real time   27.2348
 BZINTS: Fermi energy: -4.221039; 58.000000 electrons
         Band energy:-498.953304;  BLOECHL correction: -0.012863
       DOS:  cpu time    0.0040: real time    0.0054
    CHARGE:  cpu time    2.0480: real time    2.0524
    MIXING:  cpu time    0.0600: real time    0.0602
    --------------------------------------------
      LOOP:  cpu time  132.0400: real time  133.0066

 eigenvalue-minimisations  :  1176
 total energy-change (2. order) : 0.4403690E-02  (-0.5025294E-03)
 number of electron      57.9999992 magnetization       5.9415388
 augmentation part       -0.6698182 magnetization       4.7728993

 Broyden mixing:
  rms(total) = 0.11174E+00    rms(broyden)= 0.11174E+00
  rms(prec ) = 0.12759E+00
  weight for this iteration     100.00

 eigenvalues of (default mixing * dielectric matrix)
  average eigenvalue GAMMA=   1.1531
  2.2471  2.4826  2.4826  1.2808  1.2808  0.3730  0.3730  0.9704  0.9704  0.8447
  0.8447  0.6825  0.6825  0.6284

 Free energy of the ion-electron system (eV)
  ---------------------------------------------------
  alpha Z        PSCENC =        19.68084336
  Ewald energy   TEWEN  =      6462.22987265
  -Hartree energ DENC   =     -8724.04488387
  -exchange      EXHF   =         0.00000000
  -V(xc)+E(xc)   XCENC  =        36.25325886
  PAW double counting   =      1125.89206718    -1045.32187703
  entropy T*S    EENTRO =         0.00000000
  eigenvalues    EBANDS =      -498.95330405
  atomic energy  EATOM  =      2576.47363623
  Solvation  Ediel_sol  =         0.00000000
  ---------------------------------------------------
  free energy    TOTEN  =       -47.79038667 eV

  energy without entropy =      -47.79038667  energy(sigma->0) =      -47.79038667


--------------------------------------------------------------------------------------------------------




--------------------------------------- Iteration      1(  20)  ---------------------------------------


    POTLOK:  cpu time  103.1880: real time  103.7128
    SETDIJ:  cpu time    0.0640: real time    0.0619
     EDDAV:  cpu time   28.9960: real time   29.1066
 BZINTS: Fermi energy: -4.224209; 58.000000 electrons
         Band energy:-498.452735;  BLOECHL correction: -0.017537
       DOS:  cpu time    0.0040: real time    0.0046
    CHARGE:  cpu time    2.0880: real time    2.0882
    MIXING:  cpu time    0.1120: real time    0.1156
    --------------------------------------------
      LOOP:  cpu time  134.4520: real time  135.0896

 eigenvalue-minimisations  :  1272
 total energy-change (2. order) : 0.6583885E-02  (-0.7589418E-03)
 number of electron      57.9999992 magnetization       5.9286275
 augmentation part       -0.7565069 magnetization       4.6966817

 Broyden mixing:
  rms(total) = 0.57845E-01    rms(broyden)= 0.57845E-01
  rms(prec ) = 0.65735E-01
  weight for this iteration     100.00

 eigenvalues of (default mixing * dielectric matrix)
  average eigenvalue GAMMA=   1.1674
  2.2022  2.7842  2.7842  1.2799  1.2799  0.3730  0.3730  1.0010  1.0010  0.8309
  0.8309  0.7624  0.7624  0.5950  0.6508

 Free energy of the ion-electron system (eV)
  ---------------------------------------------------
  alpha Z        PSCENC =        19.68084336
  Ewald energy   TEWEN  =      6462.22987265
  -Hartree energ DENC   =     -8724.44253213
  -exchange      EXHF   =         0.00000000
  -V(xc)+E(xc)   XCENC  =        36.11720225
  PAW double counting   =      1126.99621975    -1046.38630954
  entropy T*S    EENTRO =         0.00000000
  eigenvalues    EBANDS =      -498.45273535
  atomic energy  EATOM  =      2576.47363623
  Solvation  Ediel_sol  =         0.00000000
  ---------------------------------------------------
  free energy    TOTEN  =       -47.78380279 eV

  energy without entropy =      -47.78380279  energy(sigma->0) =      -47.78380279


--------------------------------------------------------------------------------------------------------




--------------------------------------- Iteration      1(  21)  ---------------------------------------


    POTLOK:  cpu time  103.6800: real time  104.2480
    SETDIJ:  cpu time    0.0560: real time    0.0583
     EDDAV:  cpu time   29.3440: real time   29.5483
 BZINTS: Fermi energy: -4.226736; 58.000000 electrons
         Band energy:-498.207248;  BLOECHL correction: -0.015548
       DOS:  cpu time    0.0040: real time    0.0054
    CHARGE:  cpu time    2.0840: real time    2.0928
    MIXING:  cpu time    0.0760: real time    0.0745
    --------------------------------------------
      LOOP:  cpu time  135.2440: real time  136.0273

 eigenvalue-minimisations  :  1288
 total energy-change (2. order) : 0.4535170E-02  (-0.6015365E-03)
 number of electron      57.9999992 magnetization       5.9268318
 augmentation part       -0.8089990 magnetization       4.7225115

 Broyden mixing:
  rms(total) = 0.26103E-01    rms(broyden)= 0.26102E-01
  rms(prec ) = 0.29326E-01
  weight for this iteration     100.00

 eigenvalues of (default mixing * dielectric matrix)
  average eigenvalue GAMMA=   1.2169
  3.6701  2.2012  2.5614  1.2797  1.2797  1.1011  1.1011  1.0859  0.3730  0.3730
  0.8639  0.8639  0.7341  0.7341  0.6244  0.6244

 Free energy of the ion-electron system (eV)
  ---------------------------------------------------
  alpha Z        PSCENC =        19.68084336
  Ewald energy   TEWEN  =      6462.22987265
  -Hartree energ DENC   =     -8724.61926539
  -exchange      EXHF   =         0.00000000
  -V(xc)+E(xc)   XCENC  =        36.03030622
  PAW double counting   =      1127.61187505    -1046.97928758
  entropy T*S    EENTRO =         0.00000000
  eigenvalues    EBANDS =      -498.20724815
  atomic energy  EATOM  =      2576.47363623
  Solvation  Ediel_sol  =         0.00000000
  ---------------------------------------------------
  free energy    TOTEN  =       -47.77926762 eV

  energy without entropy =      -47.77926762  energy(sigma->0) =      -47.77926762


--------------------------------------------------------------------------------------------------------




--------------------------------------- Iteration      1(  22)  ---------------------------------------


    POTLOK:  cpu time  104.8360: real time  105.6143
    SETDIJ:  cpu time    0.0840: real time    0.0838
     EDDAV:  cpu time   31.2080: real time   31.5219
 BZINTS: Fermi energy: -4.227949; 58.000000 electrons
         Band energy:-498.115207;  BLOECHL correction: -0.015940
       DOS:  cpu time    0.0040: real time    0.0047
    CHARGE:  cpu time    2.0440: real time    2.0599
    MIXING:  cpu time    0.0800: real time    0.0811
    --------------------------------------------
      LOOP:  cpu time  138.2560: real time  139.3656

 eigenvalue-minimisations  :  1280
 total energy-change (2. order) :-0.2542331E-03  (-0.2669713E-03)
 number of electron      57.9999992 magnetization       5.9290746
 augmentation part       -0.8375272 magnetization       4.7293117

 Broyden mixing:
  rms(total) = 0.77698E-02    rms(broyden)= 0.77689E-02
  rms(prec ) = 0.86673E-02
  weight for this iteration     100.00

 eigenvalues of (default mixing * dielectric matrix)
  average eigenvalue GAMMA=   1.2154
  3.7744  2.2010  2.6175  1.2798  1.2798  1.1879  1.1879  1.0561  1.0561  0.3730
  0.3730  0.8019  0.8019  0.7045  0.7045  0.6311  0.6311

 Free energy of the ion-electron system (eV)
  ---------------------------------------------------
  alpha Z        PSCENC =        19.68084336
  Ewald energy   TEWEN  =      6462.22987265
  -Hartree energ DENC   =     -8724.65320742
  -exchange      EXHF   =         0.00000000
  -V(xc)+E(xc)   XCENC  =        35.94281437
  PAW double counting   =      1127.86496375    -1047.20323770
  entropy T*S    EENTRO =         0.00000000
  eigenvalues    EBANDS =      -498.11520709
  atomic energy  EATOM  =      2576.47363623
  Solvation  Ediel_sol  =         0.00000000
  ---------------------------------------------------
  free energy    TOTEN  =       -47.77952185 eV

  energy without entropy =      -47.77952185  energy(sigma->0) =      -47.77952185


--------------------------------------------------------------------------------------------------------




--------------------------------------- Iteration      1(  23)  ---------------------------------------


    POTLOK:  cpu time   97.7560: real time   98.0452
    SETDIJ:  cpu time    0.0720: real time    0.0712
     EDDAV:  cpu time   23.2120: real time   23.3021
 BZINTS: Fermi energy: -4.229912; 58.000000 electrons
         Band energy:-498.189873;  BLOECHL correction: -0.015746
       DOS:  cpu time    0.0040: real time    0.0042
    --------------------------------------------
      LOOP:  cpu time  121.0440: real time  121.4226

 eigenvalue-minimisations  :   960
 total energy-change (2. order) :-0.2719847E-04  (-0.4125137E-04)
 number of electron      57.9999992 magnetization       5.9290746
 augmentation part       -0.8375272 magnetization       4.7293117

 Free energy of the ion-electron system (eV)
  ---------------------------------------------------
  alpha Z        PSCENC =        19.68084336
  Ewald energy   TEWEN  =      6462.22987265
  -Hartree energ DENC   =     -8724.56938983
  -exchange      EXHF   =         0.00000000
  -V(xc)+E(xc)   XCENC  =        35.92761413
  PAW double counting   =      1127.71007898    -1047.04233199
  entropy T*S    EENTRO =         0.00000000
  eigenvalues    EBANDS =      -498.18987258
  atomic energy  EATOM  =      2576.47363623
  Solvation  Ediel_sol  =         0.00000000
  ---------------------------------------------------
  free energy    TOTEN  =       -47.77954905 eV

  energy without entropy =      -47.77954905  energy(sigma->0) =      -47.77954905


--------------------------------------------------------------------------------------------------------




 average (electrostatic) potential at core
  the test charge radii are     1.1394  0.9587  0.9698
  (the norm of the test charge is              1.0000)
       1 -52.7410       2 -52.7410       3 -94.1463       4 -94.1463       5 -95.1897
       6 -95.1897       7 -95.1897       8 -95.1897       9 -95.1897      10 -95.1897



 E-fermi :  -4.2299     XC(G=0):  -2.8172     alpha+bet : -2.1145


 spin component 1

 k-point     1 :       0.0000    0.0000    0.0000
  band No.  band energies     occupation 
      1     -16.6936      1.00000
      2     -15.9627      1.00000
      3     -15.3636      1.00000
      4     -15.3636      1.00000
      5     -15.3327      1.00000
      6     -15.3327      1.00000
      7     -14.3215      1.00000
      8     -12.3212      1.00000
      9      -8.0118      1.00000
     10      -8.0118      1.00000
     11      -7.8889      1.00000
     12      -7.4003      1.00000
     13      -7.4003      1.00000
     14      -7.3196      1.00000
     15      -6.3331      1.00000
     16      -6.3220      1.00000
     17      -6.1946      1.00000
     18      -6.1946      1.00000
     19      -5.9989      1.00000
     20      -5.9989      1.00000
     21      -5.5738      1.00000
     22      -5.5738      1.00000
     23      -5.2249      1.00000
     24      -5.2022      1.00000
     25      -5.2022      1.00000
     26      -5.1150      1.00000
     27      -5.0863      1.00000
     28      -5.0863      1.00000
     29      -5.0793      1.00000
     30      -4.7211      1.00000
     31      -4.7210      1.00000
     32      -4.2152      0.52140
     33      -3.9439      0.00000
     34      -3.4509      0.00000
     35      -3.4509      0.00000
     36      -3.2282      0.00000
     37      -3.2282      0.00000
     38      -2.5317      0.00000
     39      -2.5317      0.00000
     40      -1.3969      0.00000

[...]
     18      -5.7033      1.00000
     19      -5.6586      1.00000
     20      -5.3683      1.00000
     21      -5.0241      1.00000
     22      -4.8097      1.00000
     23      -4.5866      1.00000
     24      -4.4961      1.00000
     25      -4.3252      1.00000
     26      -2.0924      1.03857
     27      -1.1678      0.00000
     28      -1.1341      0.00000
     29      -0.9758      0.00000
     30      -0.3035      0.00000
     31      -0.2944      0.00000
     32      -0.2893      0.00000
     33      -0.2126      0.00000
     34      -0.0138      0.00000
     35       0.0485      0.00000
     36       0.6571      0.00000
     37       0.7529      0.00000
     38       0.9440      0.00000
     39       1.0036      0.00000
     40       1.3628      0.00000

 k-point     5 :      -0.4000    0.2000    0.0000
  band No.  band energies     occupation 
      1     -18.3632      1.00000
      2     -17.0960      1.00000
      3     -16.3249      1.00000
      4     -16.0367      1.00000
      5     -15.7615      1.00000
      6     -15.6715      1.00000
      7     -12.4834      1.00000
      8     -11.1125      1.00000
      9      -8.7354      1.00000
     10      -8.4489      1.00000
     11      -8.3808      1.00000
     12      -8.0052      1.00000
     13      -7.5782      1.00000
     14      -6.6171      1.00000
     15      -6.1467      1.00000
     16      -6.0323      1.00000
     17      -5.8300      1.00000
     18      -5.7976      1.00000
     19      -5.7922      1.00000
     20      -5.4505      1.00000
     21      -4.9265      1.00000
     22      -4.7236      1.00000
     23      -4.4702      1.00000
     24      -4.3368      1.00000
     25      -4.3179      1.00000
     26      -2.4749      1.00000
     27      -1.5184      0.00000
     28      -1.1813      0.00000
     29      -1.1331      0.00000
     30      -0.4723      0.00000
     31      -0.2857      0.00000
     32      -0.2508      0.00000
     33      -0.2319      0.00000
     34      -0.0562      0.00000
     35       0.2670      0.00000
     36       0.5452      0.00000
     37       0.7248      0.00000
     38       0.9625      0.00000
     39       1.1202      0.00000
     40       1.5266      0.00000


--------------------------------------------------------------------------------------------------------


 soft charge-density along one line, spin component           1
         0         1         2         3         4         5         6         7         8         9
 total charge-density along one line

 soft charge-density along one line, spin component           2
         0         1         2         3         4         5         6         7         8         9
 total charge-density along one line

 pseudopotential strength for first ion, spin component:           1
 -8.543   0.056  -0.000  -0.000  -0.000   0.615  -0.015   0.000
  0.056  -8.488   0.000   0.000  -0.000  -0.015   0.600  -0.000
 -0.000   0.000  -8.628   0.000   0.000   0.000  -0.000   0.639
 -0.000   0.000   0.000  -8.488  -0.056   0.000  -0.000  -0.000
 -0.000  -0.000   0.000  -0.056  -8.543   0.000   0.000  -0.000
  0.615  -0.015   0.000   0.000   0.000   0.382   0.004  -0.000
 -0.015   0.600  -0.000  -0.000   0.000   0.004   0.386   0.000
  0.000  -0.000   0.639  -0.000  -0.000  -0.000   0.000   0.376
  0.000  -0.000  -0.000   0.600   0.015  -0.000   0.000   0.000
  0.000   0.000  -0.000   0.015   0.615  -0.000  -0.000   0.000
 -0.000  -0.000   0.003  -0.000   0.000  -0.000   0.000  -0.001
  0.000   0.000  -0.000   0.000  -0.000  -0.000  -0.000   0.000
 -0.000  -0.000   0.000  -0.000   0.000   0.000   0.000  -0.000
 -0.000  -0.000  -0.000  -0.000  -0.000   0.000   0.000   0.000
  0.000  -0.000   0.000  -0.000   0.000   0.000   0.000  -0.000
  0.000   0.000  -0.000   0.000  -0.001  -0.000  -0.000   0.000
  0.000   0.000   0.000   0.000   0.000  -0.000  -0.000  -0.000
 -0.001   0.000  -0.000   0.000  -0.000   0.000  -0.000   0.000
 pseudopotential strength for first ion, spin component:           2
 -6.924  -0.127  -0.000   0.000   0.000   0.157   0.033   0.000
 -0.127  -7.072   0.000   0.000   0.000   0.033   0.196  -0.000
 -0.000   0.000  -6.800   0.000   0.000   0.000  -0.000   0.125
  0.000   0.000   0.000  -7.072   0.127  -0.000  -0.000  -0.000
  0.000   0.000   0.000   0.127  -6.924  -0.000  -0.000  -0.000
  0.157   0.033   0.000  -0.000  -0.000   0.508  -0.009  -0.000
  0.033   0.196  -0.000  -0.000  -0.000  -0.009   0.498   0.000
  0.000  -0.000   0.125  -0.000  -0.000  -0.000   0.000   0.515
 -0.000  -0.000  -0.000   0.196  -0.033   0.000   0.000   0.000
 -0.000  -0.000  -0.000  -0.033   0.157   0.000   0.000   0.000
 -0.000  -0.000   0.002  -0.000   0.000  -0.000   0.000  -0.000
  0.000   0.000  -0.000   0.000  -0.000  -0.000  -0.000   0.000
  0.000  -0.000   0.000  -0.000   0.003  -0.000   0.000  -0.000
 -0.000  -0.000  -0.000  -0.000   0.000   0.000   0.000   0.000
  0.003  -0.000   0.000  -0.000  -0.000  -0.001   0.000  -0.000
  0.000   0.000  -0.000   0.000  -0.002   0.000  -0.000   0.000
  0.000   0.000   0.000   0.000  -0.000  -0.000  -0.000  -0.000
 -0.002   0.000  -0.000   0.000   0.000   0.000  -0.000   0.000
 total augmentation occupancy for first ion, spin component:           1
  1.005  -0.107   0.000   0.000  -0.000   0.083   0.196  -0.000  -0.000  -0.000  -0.000  -0.000  -0.000   0.000   0.009   0.000
 -0.107   0.940  -0.000  -0.000   0.000   0.195   0.272   0.000  -0.000  -0.000   0.000   0.000  -0.000   0.000  -0.001   0.000
  0.000  -0.000   1.041  -0.000  -0.000  -0.000   0.000  -0.090   0.000   0.000  -0.005  -0.006  -0.000   0.000   0.000  -0.000
  0.000  -0.000  -0.000   0.940   0.107  -0.000   0.000   0.000   0.272  -0.195   0.000  -0.000   0.001   0.000  -0.000  -0.000
 -0.000   0.000  -0.000   0.107   1.005   0.000  -0.000   0.000  -0.196   0.083   0.000   0.000   0.009  -0.000   0.000   0.001
  0.083   0.195  -0.000  -0.000   0.000   0.241   0.154   0.000  -0.000  -0.000   0.000  -0.000  -0.000   0.000  -0.004   0.000
  0.196   0.272   0.000   0.000  -0.000   0.154   0.376   0.000  -0.000  -0.000   0.000  -0.000  -0.000  -0.000  -0.005   0.000
 -0.000   0.000  -0.090   0.000   0.000   0.000   0.000   0.179   0.000  -0.000   0.026  -0.008   0.000   0.000  -0.000   0.000
 -0.000  -0.000   0.000   0.272  -0.196  -0.000  -0.000   0.000   0.376  -0.154  -0.000  -0.000   0.005   0.000  -0.000  -0.000
 -0.000  -0.000   0.000  -0.195   0.083  -0.000  -0.000  -0.000  -0.154   0.241  -0.000   0.000  -0.004  -0.000   0.000  -0.001
 -0.000   0.000  -0.005   0.000   0.000   0.000  -0.000   0.026  -0.000  -0.000   0.990  -0.216   0.000  -0.000  -0.000  -0.000
 -0.000   0.000  -0.006   0.000   0.000  -0.000   0.000  -0.008   0.000   0.000  -0.216   0.087  -0.000   0.000  -0.000  -0.000
 -0.000  -0.000  -0.000   0.001   0.009  -0.000  -0.000   0.000   0.005  -0.004   0.000  -0.000   0.221  -0.000  -0.000  -0.005
  0.000   0.000   0.000   0.000  -0.000   0.000   0.000   0.000   0.000  -0.000  -0.000   0.000  -0.000   0.231   0.000   0.000
  0.009  -0.001   0.000  -0.000   0.000  -0.004  -0.005  -0.000  -0.000   0.000  -0.000  -0.000  -0.000   0.000   0.221   0.000
  0.000   0.000  -0.000  -0.000   0.001   0.000   0.000   0.000  -0.000  -0.001  -0.000  -0.000  -0.005   0.000   0.000   0.000
 -0.000   0.000  -0.000   0.000   0.000  -0.000   0.000  -0.000  -0.000   0.000   0.000  -0.000   0.000  -0.006  -0.000  -0.000
  0.001   0.000   0.000   0.000  -0.000  -0.001   0.000  -0.000   0.000  -0.000   0.000  -0.000  -0.000  -0.000  -0.005  -0.000
 total augmentation occupancy for first ion, spin component:           2
  0.685  -0.218   0.000   0.000  -0.000  -0.166   0.036  -0.000  -0.000  -0.000  -0.000  -0.000   0.000  -0.000   0.011   0.000
 -0.218   0.451  -0.000  -0.000   0.000   0.038  -0.129   0.000  -0.000  -0.000   0.000   0.000  -0.000   0.000   0.008  -0.000
  0.000  -0.000   0.907  -0.000  -0.000  -0.000   0.000  -0.216   0.000   0.000  -0.007  -0.000  -0.000  -0.000   0.000  -0.000
  0.000  -0.000  -0.000   0.451   0.218  -0.000   0.000   0.000  -0.129  -0.038  -0.000   0.000  -0.008   0.000  -0.000  -0.000
 -0.000   0.000  -0.000   0.218   0.685   0.000  -0.000   0.000  -0.036  -0.166   0.000   0.000   0.011   0.000  -0.000   0.001
 -0.166   0.038  -0.000  -0.000   0.000   0.006  -0.026   0.000   0.000  -0.000   0.000   0.000  -0.000   0.000  -0.009  -0.000
  0.036  -0.129   0.000   0.000  -0.000  -0.026  -0.018  -0.000   0.000   0.000  -0.000   0.000   0.000   0.000  -0.001  -0.000
 -0.000   0.000  -0.216   0.000   0.000   0.000  -0.000   0.051  -0.000  -0.000   0.012   0.002   0.000   0.000  -0.000   0.000
 -0.000  -0.000   0.000  -0.129  -0.036   0.000   0.000  -0.000  -0.018   0.026  -0.000  -0.000   0.001  -0.000   0.000   0.000
 -0.000  -0.000   0.000  -0.038  -0.166  -0.000   0.000  -0.000   0.026   0.006  -0.000  -0.000  -0.009  -0.000   0.000  -0.001
 -0.000  -0.000  -0.007   0.000   0.000   0.000   0.000   0.012  -0.000  -0.000   0.135   0.056  -0.000  -0.000  -0.000   0.000
 -0.000   0.000  -0.000   0.000   0.000   0.000   0.000   0.002  -0.000  -0.000   0.056  -0.026  -0.000  -0.000   0.000  -0.000
  0.000  -0.000  -0.000  -0.008   0.011  -0.000   0.000   0.000   0.001  -0.009   0.000  -0.000   0.021  -0.000  -0.000   0.002
 -0.000   0.000  -0.000   0.000   0.000   0.000  -0.000   0.000  -0.000  -0.000  -0.000  -0.000  -0.000   0.021   0.000  -0.000
  0.011   0.008   0.000  -0.000  -0.000  -0.009  -0.001  -0.000   0.000   0.000  -0.000   0.000  -0.000   0.000   0.021  -0.000
  0.000  -0.000  -0.000  -0.000   0.001  -0.000  -0.000   0.000   0.000  -0.001   0.000   0.000   0.002  -0.000  -0.000  -0.000
 -0.000  -0.000  -0.000   0.000   0.000   0.000   0.000   0.000  -0.000  -0.000  -0.000   0.000  -0.000   0.002   0.000   0.000
  0.001   0.000   0.000  -0.000  -0.000  -0.001  -0.000  -0.000  -0.000   0.000  -0.000  -0.000   0.000   0.000   0.002   0.000


------------------------ aborting loop because EDIFF is reached ----------------------------------------





 total charge     

# of ion       s       p       d       tot
------------------------------------------
    1        0.332   0.460   4.317   5.109
    2        0.332   0.460   4.317   5.109
    3        1.021   1.386   0.000   2.407
    4        1.021   1.386   0.000   2.407
    5        1.374   2.358   0.000   3.731
    6        1.358   2.327   0.000   3.685
    7        1.369   2.351   0.000   3.720
    8        1.374   2.358   0.000   3.731
    9        1.358   2.327   0.000   3.685
   10        1.369   2.351   0.000   3.720
--------------------------------------------------
tot         10.907  17.764   8.634  37.305



 magnetization (x)

# of ion       s       p       d       tot
------------------------------------------
    1        0.030   0.034   2.956   3.021
    2        0.030   0.034   2.956   3.021
    3       -0.001   0.042   0.000   0.041
    4       -0.001   0.042   0.000   0.041
    5        0.007  -0.040   0.000  -0.033
    6        0.004  -0.037   0.000  -0.033
    7        0.005  -0.037   0.000  -0.032
    8        0.007  -0.040   0.000  -0.033
    9        0.004  -0.037   0.000  -0.033
   10        0.005  -0.037   0.000  -0.032
--------------------------------------------------
tot          0.088  -0.075   5.912   5.926

    CHARGE:  cpu time    1.8280: real time    1.8294
    FORLOC:  cpu time    0.0600: real time    0.0602
    FORNL :  cpu time    5.1840: real time    5.2052
    STRESS:  cpu time   15.5800: real time   15.6209
    FORCOR:  cpu time   70.0600: real time   70.1231
    FORHAR:  cpu time    0.3360: real time    0.3387
    MIXING:  cpu time    0.0400: real time    0.0420
    OFIELD:  cpu time    0.0000: real time    0.0000

  FORCE on cell =-STRESS in cart. coord.  units (eV):
  Direction    XX          YY          ZZ          XY          YZ          ZX
  --------------------------------------------------------------------------------------
  Alpha Z    29.07769    29.07769    29.07769
  Ewald   10147.70763 10147.70412-11932.47270    -0.00104    -0.00051    -0.00092
  Hartree 10487.38187 10487.38210-10312.86373     0.00005     0.00004     0.00006
  E(xc)    -219.11088  -219.11089  -219.05297     0.00002     0.00000     0.00001
  Local  -21577.96213-21577.96058 21251.90075     0.00051     0.00026     0.00047
  n-local   524.01613   526.71525   531.33486     1.44215     0.75625     0.73431
  augment   -64.24788   -64.24785   -68.95451     0.00003     0.00006    -0.00000
  Kinetic   676.30919   667.29855   720.97654    -5.24966    -1.84098    -2.01213
  Fock        0.00000     0.00000     0.00000     0.00000     0.00000     0.00000
  -------------------------------------------------------------------------------------
  Total       0.01500     0.01500    -0.05406    -0.00000     0.00000     0.00000
  in kB       0.03665     0.03665    -0.13209    -0.00000     0.00000     0.00000
  external pressure =       -0.02 kB  Pullay stress =        0.00 kB


 VOLUME and BASIS-vectors are now :
 -----------------------------------------------------------------------------
  energy-cutoff  :      520.00
  volume of cell :      655.74
      direct lattice vectors                 reciprocal lattice vectors
     5.950426131  0.000000112  0.000000000     0.168055193 -0.097026701 -0.000000000
     2.975212676  5.153220035  0.000000000    -0.000000004  0.194053428  0.000000000
     0.000000000 -0.000000000 21.384881964    -0.000000000  0.000000000  0.046762007

  length of vectors
     5.950426131  5.950425800 21.384881964     0.194053417  0.194053428  0.046762007


 FORCES acting on ions
    electron-ion (+dipol)            ewald-force                    non-local-force                 convergence-correction
 -----------------------------------------------------------------------------------------------
   -.189E-03 -.109E-03 0.477E+00   0.450E-03 0.260E-03 -.479E+00   -.347E-17 0.430E-18 0.995E-02   0.286E-07 0.156E-07 -.114E-04
   0.189E-03 0.109E-03 -.477E+00   -.450E-03 -.260E-03 0.479E+00   0.130E-17 0.437E-18 -.995E-02   -.286E-07 -.156E-07 0.114E-04
   -.469E-04 -.226E-04 0.289E+03   -.284E-03 -.159E-03 -.288E+03   -.394E-17 0.191E-17 -.363E+00   0.317E-07 0.730E-08 -.814E-02
   0.469E-04 0.226E-04 -.289E+03   0.284E-03 0.159E-03 0.288E+03   0.377E-17 -.197E-17 0.363E+00   -.317E-07 -.730E-08 0.814E-02
   0.278E+02 -.555E-01 -.478E+03   -.311E+02 0.597E-01 0.481E+03   0.334E+01 -.485E-02 -.329E+01   0.606E-02 0.161E-04 0.179E-01
   -.139E+02 -.240E+02 -.478E+03   0.156E+02 0.269E+02 0.481E+03   -.167E+01 -.289E+01 -.329E+01   -.302E-02 -.526E-02 0.179E-01
   -.138E+02 0.241E+02 -.478E+03   0.155E+02 -.270E+02 0.481E+03   -.166E+01 0.289E+01 -.329E+01   -.304E-02 0.524E-02 0.179E-01
   -.278E+02 0.555E-01 0.478E+03   0.311E+02 -.597E-01 -.481E+03   -.334E+01 0.485E-02 0.329E+01   -.606E-02 -.161E-04 -.179E-01
   0.139E+02 0.240E+02 0.478E+03   -.156E+02 -.269E+02 -.481E+03   0.167E+01 0.289E+01 0.329E+01   0.302E-02 0.526E-02 -.179E-01
   0.138E+02 -.241E+02 0.478E+03   -.155E+02 0.270E+02 -.481E+03   0.166E+01 -.289E+01 0.329E+01   0.304E-02 -.524E-02 -.179E-01
 -----------------------------------------------------------------------------------------------
   0.840E-10 0.128E-09 -.419E-11   -.711E-14 0.355E-14 0.227E-12   0.222E-15 0.000E+00 0.888E-15   0.264E-12 0.956E-13 0.228E-10


 POSITION                                       TOTAL-FORCE (eV/Angst)
 -----------------------------------------------------------------------------------
      2.97521      1.71774     10.69084         0.000000      0.000000      0.008342
      5.95043      3.43548     10.69404         0.000000      0.000000     -0.008342
      0.00000     -0.00000      9.57837         0.000000      0.000000      0.015265
      0.00000     -0.00000     11.80651         0.000000      0.000000     -0.015265
      3.88627      0.00063     12.20171         0.026107      0.000210     -0.012294
      1.03263      1.78730     12.20171        -0.012872     -0.022714     -0.012294
      4.00675      3.36530     12.20171        -0.013235      0.022504     -0.012294
      5.03936      5.15259      9.18317        -0.026107     -0.000210      0.012294
      7.89301      3.36592      9.18317         0.012872      0.022714      0.012294
      4.91889      1.78792      9.18317         0.013235     -0.022504      0.012294
 -----------------------------------------------------------------------------------
    total drift:                                0.000000      0.000000      0.000000


--------------------------------------------------------------------------------------------------------



  FREE ENERGIE OF THE ION-ELECTRON SYSTEM (eV)
  ---------------------------------------------------
  free  energy   TOTEN  =       -54.65054966 eV

  energy  without entropy=      -54.65054966  energy(sigma->0) =      -54.65054966

 d Force =-0.7341690E-04[-0.703E-04,-0.765E-04]  d Energy = 0.2020210E-03-0.275E-03
 d Force =-0.3967204E+00[-0.397E+00,-0.396E+00]  d Ewald  =-0.6605004E+01 0.621E+01


--------------------------------------------------------------------------------------------------------


    POTLOK:  cpu time   70.0040: real time   70.1497


--------------------------------------------------------------------------------------------------------




--------------------------------------------------------------------------------------------------------


  
 reached required accuracy - stopping structural energy minimisation
     LOOP+:  cpu time  527.3040: real time  527.9497
    4ORBIT:  cpu time    0.0000: real time    0.0000



 total charge     

# of ion       s       p       d       tot
------------------------------------------
    1        0.332   0.460   4.317   5.109
    2        0.332   0.460   4.317   5.109
    3        1.021   1.386   0.000   2.407
    4        1.021   1.386   0.000   2.407
    5        1.374   2.358   0.000   3.731
    6        1.358   2.327   0.000   3.685
    7        1.369   2.351   0.000   3.720
    8        1.374   2.358   0.000   3.731
    9        1.358   2.327   0.000   3.685
   10        1.369   2.351   0.000   3.720
--------------------------------------------------
tot         10.907  17.764   8.634  37.305



 magnetization (x)

# of ion       s       p       d       tot
------------------------------------------
    1        0.030   0.034   2.956   3.021
    2        0.030   0.034   2.956   3.021
    3       -0.001   0.042   0.000   0.041
    4       -0.001   0.042   0.000   0.041
    5        0.007  -0.040   0.000  -0.033
    6        0.004  -0.037   0.000  -0.033
    7        0.005  -0.037   0.000  -0.032
    8        0.007  -0.040   0.000  -0.033
    9        0.004  -0.037   0.000  -0.033
   10        0.005  -0.037   0.000  -0.032
--------------------------------------------------
tot          0.088  -0.075   5.912   5.926

 BZINTS: Fermi energy: -1.593472; 58.000000 electrons
         Band energy:-484.570768;  BLOECHL correction: -0.042976

 total amount of memory used by VASP MPI-rank0   170209. kBytes
=======================================================================

   base      :      30000. kBytes
   nonlr-proj:       8434. kBytes
   fftplans  :      20284. kBytes
   grid      :      90201. kBytes
   one-center:        311. kBytes
   wavefun   :      20979. kBytes

  
  
 General timing and accounting informations for this job:
 ========================================================
  
                  Total CPU time used (sec):    23873.688
                            User time (sec):    23770.960
                          System time (sec):      102.728
                         Elapsed time (sec):    24038.743
  
                   Maximum memory used (kb):      591960.
                   Average memory used (kb):           0.
  
                          Minor page faults:     25254366
                          Major page faults:            7
                 Voluntary context switches:          898
