 vasp.5.4.4.18Apr17-6-g9f103f2a35 (build May  1 2020 15:48:39) complex           
 executed on             LinuxGNU date 2020.07.02  09:24:00
 running on    8 total cores
 distrk:  each k-point on    8 cores,    1 groups
 distr:  one band on NCORES_PER_BAND=   1 cores,    8 groups


--------------------------------------------------------------------------------------------------------


 INCAR:
 POTCAR:   PAW_PBE Cr 06Sep2000                   
 POTCAR:   PAW_PBE Si 05Jan2001                   
 POTCAR:    PAW_PBE P 17Jan2003                   
 POTCAR:    PAW_PBE S 17Jan2003                   

 ----------------------------------------------------------------------------- 
|                                                                             |
|           W    W    AA    RRRRR   N    N  II  N    N   GGGG   !!!           |
|           W    W   A  A   R    R  NN   N  II  NN   N  G    G  !!!           |
|           W    W  A    A  R    R  N N  N  II  N N  N  G       !!!           |
|           W WW W  AAAAAA  RRRRR   N  N N  II  N  N N  G  GGG   !            |
|           WW  WW  A    A  R   R   N   NN  II  N   NN  G    G                |
|           W    W  A    A  R    R  N    N  II  N    N   GGGG   !!!           |
|                                                                             |
|      For optimal performance we recommend to set                            |
|        NCORE= 4 - approx SQRT( number of cores)                             |
|      NCORE specifies how many cores store one orbital (NPAR=cpu/NCORE).     |
|      This setting can  greatly improve the performance of VASP for DFT.     |
|      The default,   NCORE=1            might be grossly inefficient         |
|      on modern multi-core architectures or massively parallel machines.     |
|      Do your own testing !!!!                                               |
|      Unfortunately you need to use the default for GW and RPA calculations. |
|      (for HF NCORE is supported but not extensively tested yet)             |
|                                                                             |
 ----------------------------------------------------------------------------- 


 ----------------------------------------------------------------------------- 
|                                                                             |
|  ADVICE TO THIS USER RUNNING 'VASP/VAMP'   (HEAR YOUR MASTER'S VOICE ...):  |
|                                                                             |
|      You have switched on vdW-DFT.                                          |
|      This routine was written and supplied by Jiri Klimes.                  |
|      We recommed that you carefully read and cite the following             |
|      publication                                                            |
|      J. Klimes, D.R. Bowler, A. Michelides                                  |
|        J. Phys.: Cond Matt. 22 022201 (2010)                                |
|      J. Klimes, D.R. Bowler, A. Michelides                                  |
|        Phys. Rev. B. 83, 195131 (2011)                                      |
|      and references therein.                                                |
|                                                                             |
 ----------------------------------------------------------------------------- 

 POTCAR:   PAW_PBE Cr 06Sep2000                   
   VRHFIN =Cr : d5 s1                                                           
   LEXCH  = PE                                                                  
   EATOM  =   276.9744 eV,   20.3570 Ry                                         
                                                                                
   TITEL  = PAW_PBE Cr 06Sep2000                                                
   LULTRA =        F    use ultrasoft PP ?                                      
   IUNSCR =        1    unscreen: 0-lin 1-nonlin 2-no                           
   RPACOR =    2.080    partial core radius                                     
   POMASS =   51.996; ZVAL   =    6.000    mass and valenz                      
   RCORE  =    2.500    outmost cutoff radius                                   
   RWIGS  =    2.500; RWIGS  =    1.323    wigner-seitz radius (au A)           
   ENMAX  =  227.082; ENMIN  =  170.311 eV                                      
   RCLOC  =    1.721    cutoff for local pot                                    
   LCOR   =        T    correct aug charges                                     
   LPAW   =        T    paw PP                                                  
   EAUG   =  402.108                                                            
   DEXC   =    -.035                                                            
   RMAX   =    3.060    core radius for proj-oper                               
   RAUG   =    1.300    factor for augmentation sphere                          
   RDEP   =    2.609    radius for radial grids                                 
   QCUT   =   -4.085; QGAM   =    8.171    optimization parameters              
                                                                                
   Description                                                                  
     l     E      TYP  RCUT    TYP  RCUT                                        
     2   .000     23  2.500                                                     
     2   .000     23  2.500                                                     
     0   .000     23  2.500                                                     
     0   .000     23  2.500                                                     
     1  -.400     23  2.500                                                     
     1  2.000     23  2.500                                                     
     3   .000      7   .000                                                     
  local pseudopotential read in
  partial core-charges read in
  atomic valenz-charges read in
  non local Contribution for L=           2  read in
    real space projection operators read in
  non local Contribution for L=           2  read in
    real space projection operators read in
  non local Contribution for L=           0  read in
    real space projection operators read in
  non local Contribution for L=           0  read in
    real space projection operators read in
  non local Contribution for L=           1  read in
    real space projection operators read in
  non local Contribution for L=           1  read in
    real space projection operators read in
    PAW grid and wavefunctions read in

   number of l-projection  operators is LMAX  =           6
   number of lm-projection operators is LMMAX =          18

 POTCAR:   PAW_PBE Si 05Jan2001                   
   VRHFIN =Si: s2p2                                                             
   LEXCH  = PE                                                                  
   EATOM  =   103.0669 eV,    7.5752 Ry                                         
                                                                                
   TITEL  = PAW_PBE Si 05Jan2001                                                
   LULTRA =        F    use ultrasoft PP ?                                      
   IUNSCR =        1    unscreen: 0-lin 1-nonlin 2-no                           
   RPACOR =    1.500    partial core radius                                     
   POMASS =   28.085; ZVAL   =    4.000    mass and valenz                      
   RCORE  =    1.900    outmost cutoff radius                                   
   RWIGS  =    2.480; RWIGS  =    1.312    wigner-seitz radius (au A)           
   ENMAX  =  245.345; ENMIN  =  184.009 eV                                      
   ICORE  =        2    local potential                                         
   LCOR   =        T    correct aug charges                                     
   LPAW   =        T    paw PP                                                  
   EAUG   =  322.069                                                            
   DEXC   =    -.007                                                            
   RMAX   =    2.944    core radius for proj-oper                               
   RAUG   =    1.300    factor for augmentation sphere                          
   RDEP   =    1.993    radius for radial grids                                 
   QCUT   =   -4.246; QGAM   =    8.493    optimization parameters              
                                                                                
   Description                                                                  
     l     E      TYP  RCUT    TYP  RCUT                                        
     0   .000     23  1.900                                                     
     0   .000     23  1.900                                                     
     1   .000     23  1.900                                                     
     1   .000     23  1.900                                                     
     2   .000      7  1.900                                                     
  local pseudopotential read in
  partial core-charges read in
  atomic valenz-charges read in
  non local Contribution for L=           0  read in
    real space projection operators read in
  non local Contribution for L=           0  read in
    real space projection operators read in
  non local Contribution for L=           1  read in
    real space projection operators read in
  non local Contribution for L=           1  read in
    real space projection operators read in
    PAW grid and wavefunctions read in

   number of l-projection  operators is LMAX  =           4
   number of lm-projection operators is LMMAX =           8

 POTCAR:    PAW_PBE P 17Jan2003                   
   VRHFIN =P : s2p3                                                             
   LEXCH  = PE                                                                  
   EATOM  =   176.0430 eV,   12.9388 Ry                                         
                                                                                
   TITEL  = PAW_PBE P 17Jan2003                                                 
   LULTRA =        F    use ultrasoft PP ?                                      
   IUNSCR =        1    unscreen: 0-lin 1-nonlin 2-no                           
   RPACOR =    1.500    partial core radius                                     
   POMASS =   30.974; ZVAL   =    5.000    mass and valenz                      
   RCORE  =    1.900    outmost cutoff radius                                   
   RWIGS  =    2.330; RWIGS  =    1.233    wigner-seitz radius (au A)           
   ENMAX  =  270.000; ENMIN  =  191.280 eV                                      
   ICORE  =        2    local potential                                         
   LCOR   =        T    correct aug charges                                     
   LPAW   =        T    paw PP                                                  
   EAUG   =  342.924                                                            
   DEXC   =    -.002                                                            
   RMAX   =    2.887    core radius for proj-oper                               
   RAUG   =    1.300    factor for augmentation sphere                          
   RDEP   =    1.931    radius for radial grids                                 
   QCUT   =   -4.330; QGAM   =    8.659    optimization parameters              
                                                                                
   Description                                                                  
     l     E      TYP  RCUT    TYP  RCUT                                        
     0   .000     23  1.900                                                     
     0   .000     23  1.900                                                     
     1   .000     23  1.900                                                     
     1   .000     23  1.900                                                     
     2   .000     23  1.900                                                     
  local pseudopotential read in
  partial core-charges read in
  atomic valenz-charges read in
  non local Contribution for L=           0  read in
    real space projection operators read in
  non local Contribution for L=           0  read in
    real space projection operators read in
  non local Contribution for L=           1  read in
    real space projection operators read in
  non local Contribution for L=           1  read in
    real space projection operators read in
    PAW grid and wavefunctions read in

   number of l-projection  operators is LMAX  =           4
   number of lm-projection operators is LMMAX =           8

 POTCAR:    PAW_PBE S 17Jan2003                   
   VRHFIN =S : s2p4                                                             
   LEXCH  = PE                                                                  
   EATOM  =   276.8230 eV,   20.3459 Ry                                         
                                                                                
   TITEL  = PAW_PBE S 17Jan2003                                                 
   LULTRA =        F    use ultrasoft PP ?                                      
   IUNSCR =        1    unscreen: 0-lin 1-nonlin 2-no                           
   RPACOR =    1.500    partial core radius                                     
   POMASS =   32.066; ZVAL   =    6.000    mass and valenz                      
   RCORE  =    1.900    outmost cutoff radius                                   
   RWIGS  =    2.200; RWIGS  =    1.164    wigner-seitz radius (au A)           
   ENMAX  =  280.000; ENMIN  =  194.016 eV                                      
   ICORE  =        2    local potential                                         
   LCOR   =        T    correct aug charges                                     
   LPAW   =        T    paw PP                                                  
   EAUG   =  335.092                                                            
   DEXC   =     .000                                                            
   RMAX   =    2.867    core radius for proj-oper                               
   RAUG   =    1.300    factor for augmentation sphere                          
   RDEP   =    1.954    radius for radial grids                                 
   QCUT   =   -4.360; QGAM   =    8.721    optimization parameters              
                                                                                
   Description                                                                  
     l     E      TYP  RCUT    TYP  RCUT                                        
     0   .000     23  1.900                                                     
     0   .000     23  1.900                                                     
     1   .000     23  1.900                                                     
     1   .000     23  1.900                                                     
     2   .000     23  1.900                                                     
  local pseudopotential read in
  partial core-charges read in
  atomic valenz-charges read in
  non local Contribution for L=           0  read in
    real space projection operators read in
  non local Contribution for L=           0  read in
    real space projection operators read in
  non local Contribution for L=           1  read in
    real space projection operators read in
  non local Contribution for L=           1  read in
    real space projection operators read in
    PAW grid and wavefunctions read in

   number of l-projection  operators is LMAX  =           4
   number of lm-projection operators is LMMAX =           8

 Optimization of the real space projectors (new method)

 maximal supplied QI-value         = 15.12
 optimisation between [QCUT,QGAM] = [ 11.64, 23.28] = [ 37.95,151.78] Ry 
 Optimized for a Real-space Cutoff    1.49 Angstroem

   l    n(q)    QCUT    max X(q) W(low)/X(q) W(high)/X(q)  e(spline) 
   2      9    11.641     4.777    0.25E-04    0.21E-05    0.63E-07
   2      9    11.641    31.132    0.13E-03    0.22E-03    0.64E-06
   0     10    11.641    20.416    0.11E-04    0.74E-05    0.19E-07
   0     10    11.641    45.408    0.10E-03    0.85E-04    0.30E-06
   1     10    11.641     7.848    0.22E-04    0.23E-04    0.56E-07
   1     10    11.641     9.895    0.85E-04    0.54E-04    0.16E-06
 Optimization of the real space projectors (new method)

 maximal supplied QI-value         = 19.84
 optimisation between [QCUT,QGAM] = [ 11.51, 23.22] = [ 37.09,150.92] Ry 
 Optimized for a Real-space Cutoff    1.21 Angstroem

   l    n(q)    QCUT    max X(q) W(low)/X(q) W(high)/X(q)  e(spline) 
   0      8    11.508     8.708    0.18E-04    0.44E-05    0.47E-08
   0      8    11.508   106.241    0.70E-04    0.15E-03    0.51E-07
   1      8    11.508     5.901    0.63E-05    0.23E-04    0.21E-07
   1      8    11.508    73.241    0.15E-03    0.36E-04    0.79E-07
 Optimization of the real space projectors (new method)

 maximal supplied QI-value         = 19.84
 optimisation between [QCUT,QGAM] = [ 11.51, 23.22] = [ 37.09,150.92] Ry 
 Optimized for a Real-space Cutoff    1.21 Angstroem

   l    n(q)    QCUT    max X(q) W(low)/X(q) W(high)/X(q)  e(spline) 
   0      8    11.508     6.651    0.19E-04    0.31E-05    0.49E-08
   0      8    11.508    90.285    0.95E-04    0.17E-03    0.51E-07
   1      8    11.508     4.328    0.14E-04    0.32E-04    0.22E-07
   1      8    11.508    54.583    0.16E-03    0.71E-04    0.89E-07
 Optimization of the real space projectors (new method)

 maximal supplied QI-value         = 19.84
 optimisation between [QCUT,QGAM] = [ 11.51, 23.22] = [ 37.09,150.92] Ry 
 Optimized for a Real-space Cutoff    1.21 Angstroem

   l    n(q)    QCUT    max X(q) W(low)/X(q) W(high)/X(q)  e(spline) 
   0      8    11.508     5.487    0.18E-04    0.22E-05    0.47E-08
   0      8    11.508    85.627    0.96E-04    0.18E-03    0.54E-07
   1      8    11.508     3.530    0.17E-04    0.28E-04    0.21E-07
   1      8    11.508    42.714    0.18E-03    0.63E-04    0.92E-07

 ----------------------------------------------------------------------------- 
|                                                                             |
|  ADVICE TO THIS USER RUNNING 'VASP/VAMP'   (HEAR YOUR MASTER'S VOICE ...):  |
|                                                                             |
|      You enforced a specific xc-type in the INCAR file,                     |
|      a different type was found on the POTCAR file                          |
|          I HOPE YOU KNOW, WHAT YOU ARE  DOING                               |
|                                                                             |
 ----------------------------------------------------------------------------- 

 PAW_PBE Cr 06Sep2000                   :
 energy of atom  1       EATOM= -276.9744
 kinetic energy error for atom=    0.0010 (will be added to EATOM!!)
 PAW_PBE Si 05Jan2001                   :
 energy of atom  2       EATOM= -103.0669
 kinetic energy error for atom=    0.0005 (will be added to EATOM!!)
  PAW_PBE P 17Jan2003                   :
 energy of atom  3       EATOM= -176.0430
 kinetic energy error for atom=    0.0011 (will be added to EATOM!!)
  PAW_PBE S 17Jan2003                   :
 energy of atom  4       EATOM= -276.8230
 kinetic energy error for atom=    0.0016 (will be added to EATOM!!)


 POSCAR: Cr2 Si P S6                             
  positions in direct lattice
  velocities in cartesian coordinates
  No initial velocities read in
 exchange correlation table for  LEXCH =       42
   RHO(1)=    0.500       N(1)  =     2000
   RHO(2)=  100.500       N(2)  =     4000



--------------------------------------------------------------------------------------------------------


 ion  position               nearest neighbor table
   1  0.333  0.333  0.500-   6 2.78   5 2.78   7 2.78   8 2.78  10 2.78   9 2.78
   2  0.667  0.667  0.500-   9 2.78   8 2.78  10 2.78   5 2.78   7 2.78   6 2.78
   3  0.000  0.000  0.448-   4 2.43   8 2.63  10 2.63   9 2.63
   4  0.000  0.000  0.552-   3 2.43   5 2.63   7 2.63   6 2.63
   5  0.626  0.000  0.574-   4 2.63   1 2.78   2 2.78
   6  0.000  0.373  0.574-   4 2.63   1 2.78   2 2.78
   7  0.373  0.626  0.574-   4 2.63   1 2.78   2 2.78
   8  0.374  1.000  0.426-   3 2.63   2 2.78   1 2.78
   9  1.000  0.627  0.426-   3 2.63   2 2.78   1 2.78
  10  0.627  0.374  0.426-   3 2.63   2 2.78   1 2.78

  LATTYP: Found a hexagonal cell.
 ALAT       =     6.9077769333
 C/A-ratio  =     3.3939410937
  
  Lattice vectors:
  
 A1 = (   3.4538890000,  -5.9823100000,   0.0000000000)
 A2 = (  -6.9077770000,   0.0000000000,   0.0000000000)
 A3 = (   0.0000000000,   0.0000000000, -23.4445880000)


Analysis of symmetry for initial positions (statically):
=====================================================================
 Subroutine PRICEL returns:
 Original cell was already a primitive cell.
 

 Routine SETGRP: Setting up the symmetry group for a 
 hexagonal supercell.


 Subroutine GETGRP returns: Found  3 space group operations
 (whereof  3 operations were pure point group operations)
 out of a pool of 24 trial point group operations.


The static configuration has the point symmetry C_3 .


Analysis of symmetry for dynamics (positions and initial velocities):
=====================================================================
 Subroutine PRICEL returns:
 Original cell was already a primitive cell.
 

 Routine SETGRP: Setting up the symmetry group for a 
 hexagonal supercell.


 Subroutine GETGRP returns: Found  3 space group operations
 (whereof  3 operations were pure point group operations)
 out of a pool of 24 trial point group operations.


The dynamic configuration has the point symmetry C_3 .


Analysis of constrained symmetry for selective dynamics:
=====================================================================
 Subroutine PRICEL returns:
 Original cell was already a primitive cell.
 

 Routine SETGRP: Setting up the symmetry group for a 
 hexagonal supercell.


 Subroutine GETGRP returns: Found  3 space group operations
 (whereof  3 operations were pure point group operations)
 out of a pool of 24 trial point group operations.


The constrained configuration has the point symmetry C_3 .


Analysis of structural, dynamic, and magnetic symmetry:
=====================================================================
 Subroutine PRICEL returns:
 Original cell was already a primitive cell.
 

 Routine SETGRP: Setting up the symmetry group for a 
 hexagonal supercell.


 Subroutine GETGRP returns: Found  3 space group operations
 (whereof  3 operations were pure point group operations)
 out of a pool of 24 trial point group operations.


The magnetic configuration has the point symmetry C_3 .


 Subroutine INISYM returns: Found  3 space group operations
 (whereof  3 operations are pure point group operations),
 and found     1 'primitive' translations



 KPOINTS: Kpoints from vasprun.xml                

Automatic generation of k-mesh.
Space group operators:
 irot       det(A)        alpha          n_x          n_y          n_z        tau_x        tau_y        tau_z
    1     1.000000     0.000000     1.000000     0.000000     0.000000     0.000000     0.000000     0.000000
    2     1.000000   120.000000     0.000000     0.000000     1.000000     0.000000     0.000000     0.000000
    3     1.000000   120.000000     0.000000     0.000000    -1.000000     0.000000     0.000000     0.000000
 
 Subroutine IBZKPT returns following result:
 ===========================================
 
 Found      5 irreducible k-points:
 
 Following reciprocal coordinates:
            Coordinates               Weight
  0.000000  0.000000  0.000000      1.000000
  0.200000  0.000000  0.000000      6.000000
  0.400000  0.000000  0.000000      6.000000
  0.400000  0.200000  0.000000      6.000000
 -0.400000  0.200000  0.000000      6.000000
 
 Following cartesian coordinates:
            Coordinates               Weight
  0.000000  0.000000  0.000000      1.000000
  0.028953 -0.016716  0.000000      6.000000
  0.057906 -0.033432  0.000000      6.000000
  0.057906  0.000000  0.000000      6.000000
 -0.057906  0.066864  0.000000      6.000000
 
 TETIRR: Found     15 inequivalent tetrahedra from      150


--------------------------------------------------------------------------------------------------------




 Dimension of arrays:
   k-points           NKPTS =      5   k-points in BZ     NKDIM =      5   number of bands    NBANDS=     40
   number of dos      NEDOS =    301   number of ions     NIONS =     10
   non local maximal  LDIM  =      6   non local SUM 2l+1 LMDIM =     18
   total plane-waves  NPLWV = 524880
   max r-space proj   IRMAX =   7543   max aug-charges    IRDMAX=  27873
   dimension x,y,z NGX =    54 NGY =   54 NGZ =  180
   dimension x,y,z NGXF=   108 NGYF=  108 NGZF=  360
   support grid    NGXF=   108 NGYF=  108 NGZF=  360
   ions per type =               2   1   1   6
   NGX,Y,Z   is equivalent  to a cutoff of  13.00, 13.00, 12.76 a.u.
   NGXF,Y,Z  is equivalent  to a cutoff of  25.99, 25.99, 25.53 a.u.

 SYSTEM =  unknown system                          
 POSCAR =  Cr2 Si P S6                             

 Startparameter for this run:
   NWRITE =      2    write-flag & timer
   PREC   = accura    normal or accurate (medium, high low for compatibility)
   ISTART =      0    job   : 0-new  1-cont  2-samecut
   ICHARG =      2    charge: 1-file 2-atom 10-const
   ISPIN  =      2    spin polarized calculation?
   LNONCOLLINEAR =      F non collinear calculations
   LSORBIT =      F    spin-orbit coupling
   INIWAV =      1    electr: 0-lowe 1-rand  2-diag
   LASPH  =      F    aspherical Exc in radial PAW
   METAGGA=      F    non-selfconsistent MetaGGA calc.

 Electronic Relaxation 1
   ENCUT  =  520.0 eV  38.22 Ry    6.18 a.u.  12.84 12.84 43.59*2*pi/ulx,y,z
   ENINI  =  520.0     initial cutoff
   ENAUG  =  402.1 eV  augmentation charge cutoff
   NELM   =    400;   NELMIN=  2; NELMDL=  0     # of ELM steps 
   EDIFF  = 0.1E-03   stopping-criterion for ELM
   LREAL  =      T    real-space projection
   NLSPLINE    = F    spline interpolate recip. space projectors
   LCOMPAT=      F    compatible to vasp.4.4
   GGA_COMPAT  = T    GGA compatible to vasp.4.4-vasp.4.6
   LMAXPAW     = -100 max onsite density
   LMAXMIX     =    2 max onsite mixed and CHGCAR
   VOSKOWN=      0    Vosko Wilk Nusair interpolation
   ROPT   =   -0.00025  -0.00025  -0.00025  -0.00025
 Ionic relaxation
   EDIFFG = 0.1E-02   stopping-criterion for IOM
   NSW    =     99    number of steps for IOM
   NBLOCK =      1;   KBLOCK =     99    inner block; outer block 
   IBRION =      2    ionic relax: 0-MD 1-quasi-New 2-CG
   NFREE  =      1    steps in history (QN), initial steepest desc. (CG)
   ISIF   =      3    stress and relaxation
   IWAVPR =     11    prediction:  0-non 1-charg 2-wave 3-comb
   ISYM   =      2    0-nonsym 1-usesym 2-fastsym
   LCORR  =      T    Harris-Foulkes like correction to forces

   POTIM  = 0.5000    time-step for ionic-motion
   TEIN   =    0.0    initial temperature
   TEBEG  =    0.0;   TEEND  =   0.0 temperature during run
   SMASS  =  -3.00    Nose mass-parameter (am)
   estimated Nose-frequenzy (Omega)   =  0.10E-29 period in steps =****** mass=  -0.109E-26a.u.
   SCALEE = 1.0000    scale energy and forces
   NPACO  =    256;   APACO  = 16.0  distance and # of slots for P.C.
   PSTRESS=    0.0 pullay stress

  Mass of Ions in am
   POMASS =  52.00 28.09 30.97 32.07
  Ionic Valenz
   ZVAL   =   6.00  4.00  5.00  6.00
  Atomic Wigner-Seitz radii
   RWIGS  =  -1.00 -1.00 -1.00 -1.00
  virtual crystal weights 
   VCA    =   1.00  1.00  1.00  1.00
   NELECT =      57.0000    total number of electrons
   NUPDOWN=      -1.0000    fix difference up-down

 DOS related values:
   EMIN   =  10.00;   EMAX   =-10.00  energy-range for DOS
   EFERMI =   0.00
   ISMEAR =    -5;   SIGMA  =   0.05  broadening in eV -4-tet -1-fermi 0-gaus

 Electronic relaxation 2 (details)
   IALGO  =     38    algorithm
   LDIAG  =      T    sub-space diagonalisation (order eigenvalues)
   LSUBROT=      F    optimize rotation matrix (better conditioning)
   TURBO    =      0    0=normal 1=particle mesh
   IRESTART =      0    0=no restart 2=restart with 2 vectors
   NREBOOT  =      0    no. of reboots
   NMIN     =      0    reboot dimension
   EREF     =   0.00    reference energy to select bands
   IMIX   =      4    mixing-type and parameters
     AMIX     =   0.40;   BMIX     =  1.00
     AMIX_MAG =   1.60;   BMIX_MAG =  1.00
     AMIN     =   0.01
     WC   =   100.;   INIMIX=   1;  MIXPRE=   1;  MAXMIX= -45

 Intra band minimization:
   WEIMIN = 0.0010     energy-eigenvalue tresh-hold
   EBREAK =  0.63E-06  absolut break condition
   DEPER  =   0.30     relativ break condition  

   TIME   =   0.40     timestep for ELM

  volume/ion in A,a.u.               =      96.88       653.80
  Fermi-wavevector in a.u.,A,eV,Ry     =   0.636722  1.203230  5.516004  0.405415
  Thomas-Fermi vector in A             =   1.701488

 Write flags
   LWAVE        =      F    write WAVECAR
   LDOWNSAMPLE  =      F    k-point downsampling of WAVECAR
   LCHARG       =      T    write CHGCAR
   LVTOT        =      F    write LOCPOT, total local potential
   LVHAR        =      F    write LOCPOT, Hartree potential only
   LELF         =      F    write electronic localiz. function (ELF)
   LORBIT       =     11    0 simple, 1 ext, 2 COOP (PROOUT), +10 PAW based schemes


 Dipole corrections
   LMONO  =      F    monopole corrections only (constant potential shift)
   LDIPOL =      F    correct potential (dipole corrections)
   IDIPOL =      0    1-x, 2-y, 3-z, 4-all directions 
   EPSILON=  1.0000000 bulk dielectric constant

 Exchange correlation treatment:
   GGA     =    BO    GGA type
   LEXCH   =    42    internal setting for exchange type
   VOSKOWN=      0    Vosko Wilk Nusair interpolation
   LHFCALC =     F    Hartree Fock is set to
   LHFONE  =     F    Hartree Fock one center treatment
   AEXX    =    0.0000 exact exchange contribution

 vdW DFT:
   LUSE_VDW   =     T    switch on vdW DFT
   Zab_VDW    =-.8491    correlation parameter
   PARAM1     =0.1833
   PARAM2     =0.2200
   PARAM3     =0.0000
   -- rVV10 --
   BPARAM     = 6.3000
   CPARAM     = 0.0093

 Linear response parameters
   LEPSILON=     F    determine dielectric tensor
   LRPA    =     F    only Hartree local field effects (RPA)
   LNABLA  =     F    use nabla operator in PAW spheres
   LVEL    =     F    velocity operator in full k-point grid
   LINTERFAST=   F  fast interpolation
   KINTER  =     0    interpolate to denser k-point grid
   CSHIFT  =0.1000    complex shift for real part using Kramers Kronig
   OMEGAMAX=  -1.0    maximum frequency
   DEG_THRESHOLD= 0.2000000E-02 threshold for treating states as degnerate
   RTIME   =   -0.100 relaxation time in fs
  (WPLASMAI=    0.000 imaginary part of plasma frequency in eV, 0.658/RTIME)
   DFIELD  = 0.0000000 0.0000000 0.0000000 field for delta impulse in time

 Orbital magnetization related:
   ORBITALMAG=     F  switch on orbital magnetization
   LCHIMAG   =     F  perturbation theory with respect to B field
   DQ        =  0.001000  dq finite difference perturbation B field
   LLRAUG    =     F  two centre corrections for induced B field



--------------------------------------------------------------------------------------------------------


 conjugate gradient relaxation of ions
   using selective dynamics as specified on POSCAR
 charge density and potential will be updated during run
 spin polarized calculation
 Variant of blocked Davidson
 Davidson routine will perform the subspace rotation
 perform sub-space diagonalisation
    after iterative eigenvector-optimisation
 modified Broyden-mixing scheme, WC =      100.0
 initial mixing is a Kerker type mixing with AMIX =  0.4000 and BMIX =      1.0000
 Hartree-type preconditioning will be used
 using additional bands           11
 real space projection scheme for non local part
 use partial core corrections
 calculate Harris-corrections to forces   (improved forces if not selfconsistent)
 use gradient corrections 
 use of overlap-Matrix (Vanderbilt PP)
 Fermi weights with tetrahedron method with Bloechl corrections


--------------------------------------------------------------------------------------------------------


  energy-cutoff  :      520.00
  volume of cell :      968.84
      direct lattice vectors                 reciprocal lattice vectors
     6.907777000 -0.000000000  0.000000000     0.144764372 -0.083579742  0.000000000
     3.453888000  5.982310000  0.000000000     0.000000000  0.167159509 -0.000000000
     0.000000000  0.000000000 23.444588000    -0.000000000  0.000000000  0.042653767

  length of vectors
     6.907777000  6.907776433 23.444588000     0.167159495  0.167159509  0.042653767



 k-points in units of 2pi/SCALE and weight: Kpoints from vasprun.xml                
   0.00000000  0.00000000  0.00000000       0.040
   0.02895287 -0.01671595  0.00000000       0.240
   0.05790575 -0.03343190  0.00000000       0.240
   0.05790575  0.00000000  0.00000000       0.240
  -0.05790575  0.06686380  0.00000000       0.240

 k-points in reciprocal lattice and weights: Kpoints from vasprun.xml                
   0.00000000  0.00000000  0.00000000       0.040
   0.20000000  0.00000000  0.00000000       0.240
   0.40000000  0.00000000  0.00000000       0.240
   0.40000000  0.20000000  0.00000000       0.240
  -0.40000000  0.20000000  0.00000000       0.240

 position of ions in fractional coordinates (direct lattice) 
   0.33333300  0.33333300  0.49992500
   0.66666700  0.66666700  0.50007500
   0.00000000  0.00000000  0.44821600
   0.00000000  0.00000000  0.55178400
   0.62635700  0.00042000  0.57375200
   0.00042000  0.37322400  0.57375200
   0.37322400  0.62635700  0.57375200
   0.37364300  0.99958000  0.42624800
   0.99958000  0.62677600  0.42624800
   0.62677600  0.37364300  0.42624800

 position of ions in cartesian coordinates  (Angst):
   3.45388488  1.99410134 11.72053566
   6.90778012  3.98820866 11.72405234
   0.00000000  0.00000000 10.50823946
   0.00000000  0.00000000 12.93634854
   4.32818511  0.00251257 13.45137925
   1.29197516  2.23274167 13.45137925
   4.74151509  3.74706174 13.45137925
   6.03347989  5.97979743  9.99320875
   9.06968984  3.74956833  9.99320875
   5.62014991  2.23524826  9.99320875



--------------------------------------------------------------------------------------------------------


 k-point  1 :   0.0000 0.0000 0.0000  plane waves:   26073
 k-point  2 :   0.2000 0.0000 0.0000  plane waves:   26070
 k-point  3 :   0.4000 0.0000 0.0000  plane waves:   26086
 k-point  4 :   0.4000 0.2000 0.0000  plane waves:   26085
 k-point  5 :  -0.4000 0.2000 0.0000  plane waves:   26115

 maximum and minimum number of plane-waves per node :     26115    26070

 maximum number of plane-waves:     26115
 maximum index in each direction: 
   IXMAX=   13   IYMAX=   12   IZMAX=   43
   IXMIN=  -13   IYMIN=  -13   IZMIN=  -43


 serial   3D FFT for wavefunctions
 parallel 3D FFT for charge:
    minimum data exchange during FFTs selected (reduces bandwidth)


 total amount of memory used by VASP MPI-rank0   171924. kBytes
=======================================================================

   base      :      30000. kBytes
   nonlr-proj:       5770. kBytes
   fftplans  :      20284. kBytes
   grid      :      94580. kBytes
   one-center:        311. kBytes
   wavefun   :      20979. kBytes

     INWAV:  cpu time    0.0000: real time    0.0001
 Broyden mixing: mesh for mixing (old mesh)
   NGX = 25   NGY = 25   NGZ = 87
  (NGX  =108   NGY  =108   NGZ  =360)
  gives a total of  54375 points

 initial charge density was supplied:
 charge density of overlapping atoms calculated
 number of electron      57.0000000 magnetization       6.0000000
 keeping initial charge density in first step


--------------------------------------------------------------------------------------------------------


 Maximum index for non-local projection operator         7247
 Maximum index for augmentation-charges         3407 (set IRDMAX)


--------------------------------------------------------------------------------------------------------


 First call to EWALD:  gamma=   0.179
 Maximum number of real-space cells 4x 4x 1
 Maximum number of reciprocal cells 2x 2x 6

    FEWALD:  cpu time    0.0000: real time    0.0009


--------------------------------------- Iteration      1(   1)  ---------------------------------------


vdW kernel read from vdw_kernel.bindat
  0.0000  0.2424  0.5071  0.7962  1.1119  1.4567  1.8333  2.2446  2.6937  3.1842
  3.7199  4.3049  4.9438  5.6415  6.4036  7.2358  8.1446  9.1372 10.2212 11.4050
 12.6979 14.1099 15.6519 17.3360 19.1751 21.1837 23.3773 25.7729 28.3892 31.2465
 34.3669 37.7748 41.4965 45.5611 50.0000

    POTLOK:  cpu time   69.0440: real time   69.1168
    SETDIJ:  cpu time    0.0440: real time    0.0463
     EDDAV:  cpu time   17.8560: real time   17.9559
 BZINTS: Fermi energy:  6.188981; 57.000000 electrons
         Band energy:  17.183877;  BLOECHL correction: -0.055797
       DOS:  cpu time    0.0080: real time    0.0051
    --------------------------------------------
      LOOP:  cpu time   86.9520: real time   87.1242

 eigenvalue-minimisations  :   800
 total energy-change (2. order) : 0.4425131E+03  (-0.1608437E+04)
 number of electron      57.0000000 magnetization       6.0000000
 augmentation part       57.0000000 magnetization       6.0000000

 Free energy of the ion-electron system (eV)
  ---------------------------------------------------
  alpha Z        PSCENC =        18.65691695
  Ewald energy   TEWEN  =      6221.61188061
  -Hartree energ DENC   =     -8428.34184557
  -exchange      EXHF   =         0.00000000
  -V(xc)+E(xc)   XCENC  =        19.23743958
  PAW double counting   =      1128.06567671    -1037.18513801
  entropy T*S    EENTRO =         0.00000000
  eigenvalues    EBANDS =        17.18387743
  atomic energy  EATOM  =      2503.28425743
  Solvation  Ediel_sol  =         0.00000000
  ---------------------------------------------------
  free energy    TOTEN  =       442.51306513 eV

  energy without entropy =      442.51306513  energy(sigma->0) =      442.51306513


--------------------------------------------------------------------------------------------------------




--------------------------------------- Iteration      1(   2)  ---------------------------------------


     EDDAV:  cpu time   29.1800: real time   29.5297
 BZINTS: Fermi energy: -0.197255; 57.000000 electrons
         Band energy:-371.488170;  BLOECHL correction: -0.063593
       DOS:  cpu time    0.0040: real time    0.0039
    --------------------------------------------
      LOOP:  cpu time   29.1840: real time   29.5336

 eigenvalue-minimisations  :  1056
 total energy-change (2. order) :-0.3886720E+03  (-0.3719341E+03)
 number of electron      57.0000000 magnetization       6.0000000
 augmentation part       57.0000000 magnetization       6.0000000

 Free energy of the ion-electron system (eV)
  ---------------------------------------------------
  alpha Z        PSCENC =        18.65691695
  Ewald energy   TEWEN  =      6221.61188061
  -Hartree energ DENC   =     -8428.34184557
  -exchange      EXHF   =         0.00000000
  -V(xc)+E(xc)   XCENC  =        19.23743958
  PAW double counting   =      1128.06567671    -1037.18513801
  entropy T*S    EENTRO =         0.00000000
  eigenvalues    EBANDS =      -371.48816988
  atomic energy  EATOM  =      2503.28425743
  Solvation  Ediel_sol  =         0.00000000
  ---------------------------------------------------
  free energy    TOTEN  =        53.84101782 eV

  energy without entropy =       53.84101782  energy(sigma->0) =       53.84101782


--------------------------------------------------------------------------------------------------------




--------------------------------------- Iteration      1(   3)  ---------------------------------------


     EDDAV:  cpu time   28.6720: real time   28.9222
 BZINTS: Fermi energy: -2.160915; 57.000000 electrons
         Band energy:-474.963811;  BLOECHL correction: -0.004151
       DOS:  cpu time    0.0040: real time    0.0041
    --------------------------------------------
      LOOP:  cpu time   28.6760: real time   28.9263

 eigenvalue-minimisations  :  1224
 total energy-change (2. order) :-0.1034756E+03  (-0.9951242E+02)
 number of electron      57.0000000 magnetization       6.0000000
 augmentation part       57.0000000 magnetization       6.0000000

 Free energy of the ion-electron system (eV)
  ---------------------------------------------------
  alpha Z        PSCENC =        18.65691695
  Ewald energy   TEWEN  =      6221.61188061
  -Hartree energ DENC   =     -8428.34184557
  -exchange      EXHF   =         0.00000000
  -V(xc)+E(xc)   XCENC  =        19.23743958
  PAW double counting   =      1128.06567671    -1037.18513801
  entropy T*S    EENTRO =         0.00000000
  eigenvalues    EBANDS =      -474.96381051
  atomic energy  EATOM  =      2503.28425743
  Solvation  Ediel_sol  =         0.00000000
  ---------------------------------------------------
  free energy    TOTEN  =       -49.63462281 eV

  energy without entropy =      -49.63462281  energy(sigma->0) =      -49.63462281


--------------------------------------------------------------------------------------------------------




--------------------------------------- Iteration      1(   4)  ---------------------------------------


     EDDAV:  cpu time   26.3160: real time   26.5797
 BZINTS: Fermi energy: -2.262667; 57.000000 electrons
         Band energy:-483.277265;  BLOECHL correction: -0.010481
       DOS:  cpu time    0.0040: real time    0.0043
    --------------------------------------------
      LOOP:  cpu time   26.3200: real time   26.5840

 eigenvalue-minimisations  :  1144
 total energy-change (2. order) :-0.8313454E+01  (-0.7769152E+01)
 number of electron      57.0000000 magnetization       6.0000000
 augmentation part       57.0000000 magnetization       6.0000000

 Free energy of the ion-electron system (eV)
  ---------------------------------------------------
  alpha Z        PSCENC =        18.65691695
  Ewald energy   TEWEN  =      6221.61188061
  -Hartree energ DENC   =     -8428.34184557
  -exchange      EXHF   =         0.00000000
  -V(xc)+E(xc)   XCENC  =        19.23743958
  PAW double counting   =      1128.06567671    -1037.18513801
  entropy T*S    EENTRO =         0.00000000
  eigenvalues    EBANDS =      -483.27726476
  atomic energy  EATOM  =      2503.28425743
  Solvation  Ediel_sol  =         0.00000000
  ---------------------------------------------------
  free energy    TOTEN  =       -57.94807705 eV

  energy without entropy =      -57.94807705  energy(sigma->0) =      -57.94807705


--------------------------------------------------------------------------------------------------------




--------------------------------------- Iteration      1(   5)  ---------------------------------------


     EDDAV:  cpu time   28.1560: real time   28.5163
 BZINTS: Fermi energy: -2.298837; 56.992025 electrons
         Band energy:-483.708094;  BLOECHL correction: -0.007728
       DOS:  cpu time    0.0040: real time    0.0056
    CHARGE:  cpu time    2.0680: real time    2.0941
    MIXING:  cpu time    0.0400: real time    0.0957
    --------------------------------------------
      LOOP:  cpu time   30.2680: real time   30.7117

 eigenvalue-minimisations  :  1224
 total energy-change (2. order) :-0.4308297E+00  (-0.4237858E+00)
 number of electron      56.9920248 magnetization       5.6299458
 augmentation part       -4.8526748 magnetization       4.3150070

 Broyden mixing:
  rms(total) = 0.28479E+01    rms(broyden)= 0.28479E+01
  rms(prec ) = 0.32059E+01
  weight for this iteration     100.00

 Free energy of the ion-electron system (eV)
  ---------------------------------------------------
  alpha Z        PSCENC =        18.65691695
  Ewald energy   TEWEN  =      6221.61188061
  -Hartree energ DENC   =     -8428.34184557
  -exchange      EXHF   =         0.00000000
  -V(xc)+E(xc)   XCENC  =        19.23743958
  PAW double counting   =      1128.06567671    -1037.18513801
  entropy T*S    EENTRO =         0.00000000
  eigenvalues    EBANDS =      -483.70809441
  atomic energy  EATOM  =      2503.28425743
  Solvation  Ediel_sol  =         0.00000000
  ---------------------------------------------------
  free energy    TOTEN  =       -58.37890670 eV

  energy without entropy =      -58.37890670  energy(sigma->0) =      -58.37890670


--------------------------------------------------------------------------------------------------------




--------------------------------------- Iteration      1(   6)  ---------------------------------------


    POTLOK:  cpu time  117.6520: real time  120.8671
    SETDIJ:  cpu time    0.1080: real time    0.1078
     EDDAV:  cpu time   46.2320: real time   46.8088
 BZINTS: Fermi energy: -5.031195; 57.000000 electrons
         Band energy:-634.645916;  BLOECHL correction: -0.023599
       DOS:  cpu time    0.0040: real time    0.0059
    CHARGE:  cpu time    2.6360: real time    2.6396
    MIXING:  cpu time    0.0520: real time    0.0534
    --------------------------------------------
      LOOP:  cpu time  166.6840: real time  170.4825

 eigenvalue-minimisations  :  1168
 total energy-change (2. order) :-0.9802999E+02  (-0.5478361E+02)
 number of electron      56.9999993 magnetization       5.5161612
 augmentation part        9.9730003 magnetization       3.3272053

 Broyden mixing:
  rms(total) = 0.65876E+01    rms(broyden)= 0.65876E+01
  rms(prec ) = 0.74290E+01
  weight for this iteration     100.00

 eigenvalues of (default mixing * dielectric matrix)
  average eigenvalue GAMMA=   0.3048
  0.3048

 Free energy of the ion-electron system (eV)
  ---------------------------------------------------
  alpha Z        PSCENC =        18.65691695
  Ewald energy   TEWEN  =      6221.61188061
  -Hartree energ DENC   =     -8386.43505707
  -exchange      EXHF   =         0.00000000
  -V(xc)+E(xc)   XCENC  =        19.65470670
  PAW double counting   =      1045.09968246     -943.63537071
  entropy T*S    EENTRO =         0.00000000
  eigenvalues    EBANDS =      -634.64591575
  atomic energy  EATOM  =      2503.28425743
  Solvation  Ediel_sol  =         0.00000000
  ---------------------------------------------------
  free energy    TOTEN  =      -156.40889938 eV

  energy without entropy =     -156.40889938  energy(sigma->0) =     -156.40889938


--------------------------------------------------------------------------------------------------------




--------------------------------------- Iteration      1(   7)  ---------------------------------------


    POTLOK:  cpu time   98.1440: real time   98.4258
    SETDIJ:  cpu time    0.0840: real time    0.0837
     EDDAV:  cpu time   41.3840: real time   41.8054
 BZINTS: Fermi energy: -4.064163; 57.000000 electrons
         Band energy:-478.378410;  BLOECHL correction: -0.000784
       DOS:  cpu time    0.0040: real time    0.0063
    CHARGE:  cpu time    3.2120: real time    3.2228
    MIXING:  cpu time    0.0640: real time    0.0633
    --------------------------------------------
      LOOP:  cpu time  142.8920: real time  143.6073

 eigenvalue-minimisations  :  1024
 total energy-change (2. order) : 0.1124424E+03  (-0.1473198E+02)
 number of electron      56.9999995 magnetization       5.5079606
 augmentation part        0.8990357 magnetization       3.2728146

 Broyden mixing:
  rms(total) = 0.16516E+01    rms(broyden)= 0.16515E+01
  rms(prec ) = 0.17264E+01
  weight for this iteration     100.00

 eigenvalues of (default mixing * dielectric matrix)
  average eigenvalue GAMMA=   0.3272
  0.3272  0.3272

 Free energy of the ion-electron system (eV)
  ---------------------------------------------------
  alpha Z        PSCENC =        18.65691695
  Ewald energy   TEWEN  =      6221.61188061
  -Hartree energ DENC   =     -8418.78918779
  -exchange      EXHF   =         0.00000000
  -V(xc)+E(xc)   XCENC  =        18.78003201
  PAW double counting   =      1113.57612798    -1022.70815778
  entropy T*S    EENTRO =         0.00000000
  eigenvalues    EBANDS =      -478.37840953
  atomic energy  EATOM  =      2503.28425743
  Solvation  Ediel_sol  =         0.00000000
  ---------------------------------------------------
  free energy    TOTEN  =       -43.96654011 eV

  energy without entropy =      -43.96654011  energy(sigma->0) =      -43.96654011


--------------------------------------------------------------------------------------------------------




--------------------------------------- Iteration      1(   8)  ---------------------------------------


    POTLOK:  cpu time   97.9800: real time   98.5312
    SETDIJ:  cpu time    0.0560: real time    0.0540
     EDDAV:  cpu time   40.6200: real time   41.0044
 BZINTS: Fermi energy: -4.059853; 57.000000 electrons
         Band energy:-481.701608;  BLOECHL correction: -0.007416
       DOS:  cpu time    0.0040: real time    0.0055
    CHARGE:  cpu time    3.1960: real time    3.2239
    MIXING:  cpu time    0.0840: real time    0.0849
    --------------------------------------------
      LOOP:  cpu time  141.9400: real time  142.9038

 eigenvalue-minimisations  :  1040
 total energy-change (2. order) :-0.2709610E+01  (-0.2391107E+01)
 number of electron      56.9999995 magnetization       5.5340044
 augmentation part       -0.4260257 magnetization       3.5225008

 Broyden mixing:
  rms(total) = 0.12243E+01    rms(broyden)= 0.12243E+01
  rms(prec ) = 0.12348E+01
  weight for this iteration     100.00

 eigenvalues of (default mixing * dielectric matrix)
  average eigenvalue GAMMA=   0.4342
  0.4798  0.4798  0.3429

 Free energy of the ion-electron system (eV)
  ---------------------------------------------------
  alpha Z        PSCENC =        18.65691695
  Ewald energy   TEWEN  =      6221.61188061
  -Hartree energ DENC   =     -8418.51678091
  -exchange      EXHF   =         0.00000000
  -V(xc)+E(xc)   XCENC  =        18.95752925
  PAW double counting   =      1113.88611034    -1022.85445571
  entropy T*S    EENTRO =         0.00000000
  eigenvalues    EBANDS =      -481.70160782
  atomic energy  EATOM  =      2503.28425743
  Solvation  Ediel_sol  =         0.00000000
  ---------------------------------------------------
  free energy    TOTEN  =       -46.67614985 eV

  energy without entropy =      -46.67614985  energy(sigma->0) =      -46.67614985


--------------------------------------------------------------------------------------------------------




--------------------------------------- Iteration      1(   9)  ---------------------------------------


    POTLOK:  cpu time   99.0080: real time   99.8289
    SETDIJ:  cpu time    0.0560: real time    0.0552
     EDDAV:  cpu time   45.3720: real time   45.9784
 BZINTS: Fermi energy: -4.042856; 57.000000 electrons
         Band energy:-483.388449;  BLOECHL correction: -0.012700
       DOS:  cpu time    0.0040: real time    0.0052
    CHARGE:  cpu time    2.8680: real time    2.9398
    MIXING:  cpu time    0.0520: real time    0.0488
    --------------------------------------------
      LOOP:  cpu time  147.3600: real time  148.8562

 eigenvalue-minimisations  :  1152
 total energy-change (2. order) :-0.1327907E+01  (-0.4243378E+00)
 number of electron      56.9999994 magnetization       5.5985966
 augmentation part        0.1048138 magnetization       3.8927644

 Broyden mixing:
  rms(total) = 0.10577E+01    rms(broyden)= 0.10577E+01
  rms(prec ) = 0.10913E+01
  weight for this iteration     100.00

 eigenvalues of (default mixing * dielectric matrix)
  average eigenvalue GAMMA=   0.5816
  0.7902  0.7902  0.3729  0.3729

 Free energy of the ion-electron system (eV)
  ---------------------------------------------------
  alpha Z        PSCENC =        18.65691695
  Ewald energy   TEWEN  =      6221.61188061
  -Hartree energ DENC   =     -8419.16583467
  -exchange      EXHF   =         0.00000000
  -V(xc)+E(xc)   XCENC  =        19.78227449
  PAW double counting   =      1114.13959591    -1022.92469802
  entropy T*S    EENTRO =         0.00000000
  eigenvalues    EBANDS =      -483.38844936
  atomic energy  EATOM  =      2503.28425743
  Solvation  Ediel_sol  =         0.00000000
  ---------------------------------------------------
  free energy    TOTEN  =       -48.00405666 eV

  energy without entropy =      -48.00405666  energy(sigma->0) =      -48.00405666


--------------------------------------------------------------------------------------------------------




--------------------------------------- Iteration      1(  10)  ---------------------------------------


    POTLOK:  cpu time   98.0160: real time   98.5009
    SETDIJ:  cpu time    0.0880: real time    0.0860
     EDDAV:  cpu time   46.9520: real time   47.6111
 BZINTS: Fermi energy: -4.043718; 57.000000 electrons
         Band energy:-482.849536;  BLOECHL correction: -0.013692
       DOS:  cpu time    0.0040: real time    0.0040
    CHARGE:  cpu time    3.4360: real time    3.4877
    MIXING:  cpu time    0.0800: real time    0.0776
    --------------------------------------------
      LOOP:  cpu time  148.5760: real time  149.7674

 eigenvalue-minimisations  :  1200
 total energy-change (2. order) :-0.6081505E+00  (-0.8485980E-01)
 number of electron      56.9999994 magnetization       5.6474222
 augmentation part        0.0659622 magnetization       4.2781446

 Broyden mixing:
  rms(total) = 0.75871E+00    rms(broyden)= 0.75871E+00
  rms(prec ) = 0.80210E+00
  weight for this iteration     100.00

 eigenvalues of (default mixing * dielectric matrix)
  average eigenvalue GAMMA=   0.5836
  0.9320  0.9320  0.3718  0.3718  0.3106

 Free energy of the ion-electron system (eV)
  ---------------------------------------------------
  alpha Z        PSCENC =        18.65691695
  Ewald energy   TEWEN  =      6221.61188061
  -Hartree energ DENC   =     -8421.49739884
  -exchange      EXHF   =         0.00000000
  -V(xc)+E(xc)   XCENC  =        21.19402933
  PAW double counting   =      1116.27745596    -1025.28981214
  entropy T*S    EENTRO =         0.00000000
  eigenvalues    EBANDS =      -482.84953644
  atomic energy  EATOM  =      2503.28425743
  Solvation  Ediel_sol  =         0.00000000
  ---------------------------------------------------
  free energy    TOTEN  =       -48.61220713 eV

  energy without entropy =      -48.61220713  energy(sigma->0) =      -48.61220713


--------------------------------------------------------------------------------------------------------




--------------------------------------- Iteration      1(  11)  ---------------------------------------


    POTLOK:  cpu time   98.0680: real time  100.1139
    SETDIJ:  cpu time    0.0560: real time    0.0572
     EDDAV:  cpu time   48.9200: real time   49.4955
 BZINTS: Fermi energy: -4.034379; 57.000000 electrons
         Band energy:-482.449177;  BLOECHL correction: -0.012864
       DOS:  cpu time    0.0040: real time    0.0053
    CHARGE:  cpu time    3.3120: real time    3.3191
    MIXING:  cpu time    0.1000: real time    0.1003
    --------------------------------------------
      LOOP:  cpu time  150.4640: real time  153.0914

 eigenvalue-minimisations  :  1272
 total energy-change (2. order) :-0.3369146E-01  (-0.4490278E-01)
 number of electron      56.9999994 magnetization       5.7141407
 augmentation part       -0.0451229 magnetization       4.6779957

 Broyden mixing:
  rms(total) = 0.48262E+00    rms(broyden)= 0.48262E+00
  rms(prec ) = 0.51548E+00
  weight for this iteration     100.00

 eigenvalues of (default mixing * dielectric matrix)
  average eigenvalue GAMMA=   0.6759
  1.2263  1.2263  0.4863  0.4863  0.3974  0.2332

 Free energy of the ion-electron system (eV)
  ---------------------------------------------------
  alpha Z        PSCENC =        18.65691695
  Ewald energy   TEWEN  =      6221.61188061
  -Hartree energ DENC   =     -8422.76805895
  -exchange      EXHF   =         0.00000000
  -V(xc)+E(xc)   XCENC  =        22.30207197
  PAW double counting   =      1117.09937301    -1026.38316251
  entropy T*S    EENTRO =         0.00000000
  eigenvalues    EBANDS =      -482.44917710
  atomic energy  EATOM  =      2503.28425743
  Solvation  Ediel_sol  =         0.00000000
  ---------------------------------------------------
  free energy    TOTEN  =       -48.64589859 eV

  energy without entropy =      -48.64589859  energy(sigma->0) =      -48.64589859


--------------------------------------------------------------------------------------------------------




--------------------------------------- Iteration      1(  12)  ---------------------------------------


    POTLOK:  cpu time   98.9040: real time   99.5687
    SETDIJ:  cpu time    0.0560: real time    0.0579
     EDDAV:  cpu time   48.6920: real time   50.1629
 BZINTS: Fermi energy: -4.028967; 57.000000 electrons
         Band energy:-482.539307;  BLOECHL correction: -0.008836
       DOS:  cpu time    0.0040: real time    0.0057
    CHARGE:  cpu time    3.1440: real time    3.1482
    MIXING:  cpu time    0.0760: real time    0.0761
    --------------------------------------------
      LOOP:  cpu time  150.8720: real time  153.0192

 eigenvalue-minimisations  :  1264
 total energy-change (2. order) : 0.8502008E-01  (-0.2924192E-01)
 number of electron      56.9999994 magnetization       5.6823580
 augmentation part       -0.2535403 magnetization       5.3887719

 Broyden mixing:
  rms(total) = 0.21386E+00    rms(broyden)= 0.21386E+00
  rms(prec ) = 0.23219E+00
  weight for this iteration     100.00

 eigenvalues of (default mixing * dielectric matrix)
  average eigenvalue GAMMA=   0.6295
  1.2292  1.2292  0.4942  0.4942  0.3477  0.3477  0.2647

 Free energy of the ion-electron system (eV)
  ---------------------------------------------------
  alpha Z        PSCENC =        18.65691695
  Ewald energy   TEWEN  =      6221.61188061
  -Hartree energ DENC   =     -8424.01034243
  -exchange      EXHF   =         0.00000000
  -V(xc)+E(xc)   XCENC  =        24.13284601
  PAW double counting   =      1117.18404627    -1026.88117644
  entropy T*S    EENTRO =         0.00000000
  eigenvalues    EBANDS =      -482.53930691
  atomic energy  EATOM  =      2503.28425743
  Solvation  Ediel_sol  =         0.00000000
  ---------------------------------------------------
  free energy    TOTEN  =       -48.56087851 eV

  energy without entropy =      -48.56087851  energy(sigma->0) =      -48.56087851


--------------------------------------------------------------------------------------------------------




--------------------------------------- Iteration      1(  13)  ---------------------------------------


    POTLOK:  cpu time   99.0520: real time   99.3078
    SETDIJ:  cpu time    0.0560: real time    0.0554
     EDDAV:  cpu time   46.1040: real time   46.6866
 BZINTS: Fermi energy: -4.032423; 57.000000 electrons
         Band energy:-482.642434;  BLOECHL correction:  0.000000
       DOS:  cpu time    0.0000: real time    0.0028
    CHARGE:  cpu time    3.2080: real time    3.3081
    MIXING:  cpu time    0.0800: real time    0.0792
    --------------------------------------------
      LOOP:  cpu time  148.5000: real time  149.4399

 eigenvalue-minimisations  :  1184
 total energy-change (2. order) : 0.8585385E-02  (-0.7079950E-02)
 number of electron      56.9999994 magnetization       5.5504887
 augmentation part       -0.3378309 magnetization       5.4659711

 Broyden mixing:
  rms(total) = 0.18150E+00    rms(broyden)= 0.18150E+00
  rms(prec ) = 0.19179E+00
  weight for this iteration     100.00

 eigenvalues of (default mixing * dielectric matrix)
  average eigenvalue GAMMA=   0.8072
  1.4216  1.4216  0.9532  0.9532  0.5665  0.4476  0.4476  0.2466

 Free energy of the ion-electron system (eV)
  ---------------------------------------------------
  alpha Z        PSCENC =        18.65691695
  Ewald energy   TEWEN  =      6221.61188061
  -Hartree energ DENC   =     -8423.92768679
  -exchange      EXHF   =         0.00000000
  -V(xc)+E(xc)   XCENC  =        24.17323426
  PAW double counting   =      1117.16699913    -1026.87546055
  entropy T*S    EENTRO =         0.00000000
  eigenvalues    EBANDS =      -482.64243416
  atomic energy  EATOM  =      2503.28425743
  Solvation  Ediel_sol  =         0.00000000
  ---------------------------------------------------
  free energy    TOTEN  =       -48.55229312 eV

  energy without entropy =      -48.55229312  energy(sigma->0) =      -48.55229312


--------------------------------------------------------------------------------------------------------




--------------------------------------- Iteration      1(  14)  ---------------------------------------


    POTLOK:  cpu time   98.4680: real time   98.7709
    SETDIJ:  cpu time    0.0560: real time    0.0586
     EDDAV:  cpu time   43.2040: real time   43.5388
 BZINTS: Fermi energy: -4.078840; 57.000000 electrons
         Band energy:-482.698627;  BLOECHL correction:  0.000000
       DOS:  cpu time    0.0040: real time    0.0029
    CHARGE:  cpu time    3.1880: real time    3.1892
    MIXING:  cpu time    0.0880: real time    0.0892
    --------------------------------------------
      LOOP:  cpu time  145.0080: real time  145.6497

 eigenvalue-minimisations  :  1120
 total energy-change (2. order) :-0.1432890E-01  (-0.8156844E-02)
 number of electron      56.9999994 magnetization       5.4531563
 augmentation part       -0.3994299 magnetization       5.3345986

 Broyden mixing:
  rms(total) = 0.10062E+00    rms(broyden)= 0.10062E+00
  rms(prec ) = 0.10841E+00
  weight for this iteration     100.00

 eigenvalues of (default mixing * dielectric matrix)
  average eigenvalue GAMMA=   0.8624
  1.9188  1.2566  1.2566  0.7839  0.7839  0.6408  0.4368  0.4368  0.2471

 Free energy of the ion-electron system (eV)
  ---------------------------------------------------
  alpha Z        PSCENC =        18.65691695
  Ewald energy   TEWEN  =      6221.61188061
  -Hartree energ DENC   =     -8423.72786217
  -exchange      EXHF   =         0.00000000
  -V(xc)+E(xc)   XCENC  =        23.93386749
  PAW double counting   =      1117.15021186    -1026.77726760
  entropy T*S    EENTRO =         0.00000000
  eigenvalues    EBANDS =      -482.69862659
  atomic energy  EATOM  =      2503.28425743
  Solvation  Ediel_sol  =         0.00000000
  ---------------------------------------------------
  free energy    TOTEN  =       -48.56662202 eV

  energy without entropy =      -48.56662202  energy(sigma->0) =      -48.56662202


--------------------------------------------------------------------------------------------------------




--------------------------------------- Iteration      1(  15)  ---------------------------------------


    POTLOK:  cpu time  100.0320: real time  100.3333
    SETDIJ:  cpu time    0.0600: real time    0.0570
     EDDAV:  cpu time   45.9920: real time   46.3749
 BZINTS: Fermi energy: -4.121331; 57.000000 electrons
         Band energy:-482.891575;  BLOECHL correction:  0.000000
       DOS:  cpu time    0.0000: real time    0.0028
    CHARGE:  cpu time    3.2880: real time    3.2985
    MIXING:  cpu time    0.1000: real time    0.1012
    --------------------------------------------
      LOOP:  cpu time  149.4720: real time  150.1677

 eigenvalue-minimisations  :  1200
 total energy-change (2. order) : 0.4272558E-02  (-0.2976918E-02)
 number of electron      56.9999994 magnetization       5.3654080
 augmentation part       -0.4332004 magnetization       5.2531689

 Broyden mixing:
  rms(total) = 0.10630E+00    rms(broyden)= 0.10630E+00
  rms(prec ) = 0.10950E+00
  weight for this iteration     100.00

 eigenvalues of (default mixing * dielectric matrix)
  average eigenvalue GAMMA=   0.9219
  2.1007  1.2903  1.2903  1.0268  1.0268  0.6818  0.6818  0.4364  0.4364  0.2471

 Free energy of the ion-electron system (eV)
  ---------------------------------------------------
  alpha Z        PSCENC =        18.65691695
  Ewald energy   TEWEN  =      6221.61188061
  -Hartree energ DENC   =     -8423.75421909
  -exchange      EXHF   =         0.00000000
  -V(xc)+E(xc)   XCENC  =        24.18602470
  PAW double counting   =      1116.86501628    -1026.52065091
  entropy T*S    EENTRO =         0.00000000
  eigenvalues    EBANDS =      -482.89157544
  atomic energy  EATOM  =      2503.28425743
  Solvation  Ediel_sol  =         0.00000000
  ---------------------------------------------------
  free energy    TOTEN  =       -48.56234946 eV

  energy without entropy =      -48.56234946  energy(sigma->0) =      -48.56234946


--------------------------------------------------------------------------------------------------------




--------------------------------------- Iteration      1(  16)  ---------------------------------------


    POTLOK:  cpu time   97.7080: real time   98.0498
    SETDIJ:  cpu time    0.0640: real time    0.0645
     EDDAV:  cpu time   41.0040: real time   41.5374
 BZINTS: Fermi energy: -4.124614; 57.000000 electrons
         Band energy:-482.885880;  BLOECHL correction:  0.000000
       DOS:  cpu time    0.0040: real time    0.0050
    CHARGE:  cpu time    3.2000: real time    3.2303
    MIXING:  cpu time    0.0960: real time    0.0958
    --------------------------------------------
      LOOP:  cpu time  142.0760: real time  142.9826

 eigenvalue-minimisations  :  1032
 total energy-change (2. order) :-0.2579100E-01  (-0.4577462E-02)
 number of electron      56.9999994 magnetization       5.3082359
 augmentation part       -0.5078572 magnetization       5.1143700

 Broyden mixing:
  rms(total) = 0.40315E-01    rms(broyden)= 0.40314E-01
  rms(prec ) = 0.40715E-01
  weight for this iteration     100.00

 eigenvalues of (default mixing * dielectric matrix)
  average eigenvalue GAMMA=   0.9771
  2.6823  1.2746  1.2746  1.1196  1.1196  0.7650  0.7650  0.6269  0.4367  0.4367
  0.2471

 Free energy of the ion-electron system (eV)
  ---------------------------------------------------
  alpha Z        PSCENC =        18.65691695
  Ewald energy   TEWEN  =      6221.61188061
  -Hartree energ DENC   =     -8423.40605247
  -exchange      EXHF   =         0.00000000
  -V(xc)+E(xc)   XCENC  =        23.76194686
  PAW double counting   =      1116.50367599    -1026.11488590
  entropy T*S    EENTRO =         0.00000000
  eigenvalues    EBANDS =      -482.88587994
  atomic energy  EATOM  =      2503.28425743
  Solvation  Ediel_sol  =         0.00000000
  ---------------------------------------------------
  free energy    TOTEN  =       -48.58814046 eV

  energy without entropy =      -48.58814046  energy(sigma->0) =      -48.58814046


--------------------------------------------------------------------------------------------------------




--------------------------------------- Iteration      1(  17)  ---------------------------------------


    POTLOK:  cpu time   97.8160: real time   98.8326
    SETDIJ:  cpu time    0.0520: real time    0.0556
     EDDAV:  cpu time   40.7240: real time   40.9522
 BZINTS: Fermi energy: -4.122616; 57.000000 electrons
         Band energy:-482.950270;  BLOECHL correction:  0.000000
       DOS:  cpu time    0.0040: real time    0.0018
    CHARGE:  cpu time    3.4480: real time    3.4511
    MIXING:  cpu time    0.1240: real time    0.1229
    --------------------------------------------
      LOOP:  cpu time  142.1680: real time  143.4161

 eigenvalue-minimisations  :  1016
 total energy-change (2. order) : 0.1291997E-02  (-0.6213555E-02)
 number of electron      56.9999994 magnetization       5.2710285
 augmentation part       -0.5152902 magnetization       5.0624481

 Broyden mixing:
  rms(total) = 0.21117E-01    rms(broyden)= 0.21117E-01
  rms(prec ) = 0.21505E-01
  weight for this iteration     100.00

 eigenvalues of (default mixing * dielectric matrix)
  average eigenvalue GAMMA=   0.9892
  2.7968  1.2754  1.2754  1.1807  1.1807  0.8634  0.8634  0.2471  0.4365  0.4365
  0.6573  0.6573

 Free energy of the ion-electron system (eV)
  ---------------------------------------------------
  alpha Z        PSCENC =        18.65691695
  Ewald energy   TEWEN  =      6221.61188061
  -Hartree energ DENC   =     -8423.24008239
  -exchange      EXHF   =         0.00000000
  -V(xc)+E(xc)   XCENC  =        23.64892913
  PAW double counting   =      1116.19026026    -1025.78874033
  entropy T*S    EENTRO =         0.00000000
  eigenvalues    EBANDS =      -482.95027013
  atomic energy  EATOM  =      2503.28425743
  Solvation  Ediel_sol  =         0.00000000
  ---------------------------------------------------
  free energy    TOTEN  =       -48.58684846 eV

  energy without entropy =      -48.58684846  energy(sigma->0) =      -48.58684846


--------------------------------------------------------------------------------------------------------




--------------------------------------- Iteration      1(  18)  ---------------------------------------


    POTLOK:  cpu time   97.5600: real time   98.1118
    SETDIJ:  cpu time    0.0480: real time    0.0470
     EDDAV:  cpu time   43.6360: real time   44.1541
 BZINTS: Fermi energy: -4.121706; 57.000000 electrons
         Band energy:-482.866498;  BLOECHL correction:  0.000000
       DOS:  cpu time    0.0040: real time    0.0023
    CHARGE:  cpu time    2.8680: real time    2.9263
    MIXING:  cpu time    0.0720: real time    0.0697
    --------------------------------------------
      LOOP:  cpu time  144.1880: real time  145.3112

 eigenvalue-minimisations  :  1088
 total energy-change (2. order) :-0.7902886E-03  (-0.1276315E-03)
 number of electron      56.9999994 magnetization       5.2129623
 augmentation part       -0.5091217 magnetization       5.0090067

 Broyden mixing:
  rms(total) = 0.23500E-01    rms(broyden)= 0.23500E-01
  rms(prec ) = 0.23666E-01
  weight for this iteration     100.00

 eigenvalues of (default mixing * dielectric matrix)
  average eigenvalue GAMMA=   1.0060
  2.7525  1.2495  1.2495  1.1851  1.1851  1.1762  0.9879  0.2471  0.4365  0.4365
  0.7681  0.7681  0.6365

 Free energy of the ion-electron system (eV)
  ---------------------------------------------------
  alpha Z        PSCENC =        18.65691695
  Ewald energy   TEWEN  =      6221.61188061
  -Hartree energ DENC   =     -8423.33693917
  -exchange      EXHF   =         0.00000000
  -V(xc)+E(xc)   XCENC  =        23.68331918
  PAW double counting   =      1116.23236588    -1025.85294188
  entropy T*S    EENTRO =         0.00000000
  eigenvalues    EBANDS =      -482.86649775
  atomic energy  EATOM  =      2503.28425743
  Solvation  Ediel_sol  =         0.00000000
  ---------------------------------------------------
  free energy    TOTEN  =       -48.58763875 eV

  energy without entropy =      -48.58763875  energy(sigma->0) =      -48.58763875


--------------------------------------------------------------------------------------------------------




--------------------------------------- Iteration      1(  19)  ---------------------------------------


    POTLOK:  cpu time   97.8160: real time   98.7186
    SETDIJ:  cpu time    0.0800: real time    0.0805
     EDDAV:  cpu time   36.1080: real time   36.5624
 BZINTS: Fermi energy: -4.121480; 57.000000 electrons
         Band energy:-482.789852;  BLOECHL correction:  0.000000
       DOS:  cpu time    0.0000: real time    0.0028
    CHARGE:  cpu time    3.2880: real time    3.3649
    MIXING:  cpu time    0.1720: real time    0.1727
    --------------------------------------------
      LOOP:  cpu time  137.4640: real time  138.9020

 eigenvalue-minimisations  :   872
 total energy-change (2. order) :-0.2344635E-02  (-0.1839467E-03)
 number of electron      56.9999994 magnetization       5.1281878
 augmentation part       -0.5115422 magnetization       4.9199479

 Broyden mixing:
  rms(total) = 0.19456E-01    rms(broyden)= 0.19456E-01
  rms(prec ) = 0.19626E-01
  weight for this iteration     100.00

 eigenvalues of (default mixing * dielectric matrix)
  average eigenvalue GAMMA=   1.1086
  3.2661  2.4176  1.2610  1.2610  1.1525  1.1525  0.2471  0.4365  0.4365  0.8351
  0.8351  0.8228  0.7599  0.6364

 Free energy of the ion-electron system (eV)
  ---------------------------------------------------
  alpha Z        PSCENC =        18.65691695
  Ewald energy   TEWEN  =      6221.61188061
  -Hartree energ DENC   =     -8423.39100877
  -exchange      EXHF   =         0.00000000
  -V(xc)+E(xc)   XCENC  =        23.66574095
  PAW double counting   =      1116.29414471    -1025.92206334
  entropy T*S    EENTRO =         0.00000000
  eigenvalues    EBANDS =      -482.78985193
  atomic energy  EATOM  =      2503.28425743
  Solvation  Ediel_sol  =         0.00000000
  ---------------------------------------------------
  free energy    TOTEN  =       -48.58998339 eV

  energy without entropy =      -48.58998339  energy(sigma->0) =      -48.58998339


--------------------------------------------------------------------------------------------------------




--------------------------------------- Iteration      1(  20)  ---------------------------------------


    POTLOK:  cpu time   99.2120: real time   99.4322
    SETDIJ:  cpu time    0.0720: real time    0.0745
     EDDAV:  cpu time   36.2200: real time   36.3985
 BZINTS: Fermi energy: -4.122650; 57.000000 electrons
         Band energy:-482.819245;  BLOECHL correction:  0.000000
       DOS:  cpu time    0.0040: real time    0.0030
    CHARGE:  cpu time    2.5480: real time    2.6105
    MIXING:  cpu time    0.0680: real time    0.0680
    --------------------------------------------
      LOOP:  cpu time  138.1240: real time  138.5866

 eigenvalue-minimisations  :   856
 total energy-change (2. order) :-0.6281344E-03  (-0.1971213E-03)
 number of electron      56.9999994 magnetization       5.0629638
 augmentation part       -0.5111296 magnetization       4.8479349

 Broyden mixing:
  rms(total) = 0.84076E-02    rms(broyden)= 0.84076E-02
  rms(prec ) = 0.86840E-02
  weight for this iteration     100.00

 eigenvalues of (default mixing * dielectric matrix)
  average eigenvalue GAMMA=   1.2006
  4.3316  2.6660  1.2631  1.2631  1.2331  1.2331  1.0316  1.0316  0.2471  0.4365
  0.4365  0.7662  0.7662  0.6514  0.6514

 Free energy of the ion-electron system (eV)
  ---------------------------------------------------
  alpha Z        PSCENC =        18.65691695
  Ewald energy   TEWEN  =      6221.61188061
  -Hartree energ DENC   =     -8423.30599884
  -exchange      EXHF   =         0.00000000
  -V(xc)+E(xc)   XCENC  =        23.59956922
  PAW double counting   =      1116.16413572    -1025.78212796
  entropy T*S    EENTRO =         0.00000000
  eigenvalues    EBANDS =      -482.81924465
  atomic energy  EATOM  =      2503.28425743
  Solvation  Ediel_sol  =         0.00000000
  ---------------------------------------------------
  free energy    TOTEN  =       -48.59061152 eV

  energy without entropy =      -48.59061152  energy(sigma->0) =      -48.59061152


--------------------------------------------------------------------------------------------------------




--------------------------------------- Iteration      1(  21)  ---------------------------------------


    POTLOK:  cpu time   97.9520: real time   98.7698
    SETDIJ:  cpu time    0.0640: real time    0.0654
     EDDAV:  cpu time   37.4240: real time   37.6370
 BZINTS: Fermi energy: -4.124285; 57.000000 electrons
         Band energy:-482.941874;  BLOECHL correction:  0.000000
       DOS:  cpu time    0.0000: real time    0.0052
    CHARGE:  cpu time    2.1360: real time    2.1375
    MIXING:  cpu time    0.0760: real time    0.0786
    --------------------------------------------
      LOOP:  cpu time  137.6520: real time  138.6935

 eigenvalue-minimisations  :   904
 total energy-change (2. order) :-0.2752885E-03  (-0.4399919E-04)
 number of electron      56.9999994 magnetization       5.0046545
 augmentation part       -0.5055752 magnetization       4.7949950

 Broyden mixing:
  rms(total) = 0.59453E-02    rms(broyden)= 0.59453E-02
  rms(prec ) = 0.64259E-02
  weight for this iteration     100.00

 eigenvalues of (default mixing * dielectric matrix)
  average eigenvalue GAMMA=   1.4194
  7.5925  2.6359  1.9474  1.2675  1.2675  1.0975  1.0975  0.2471  0.4365  0.4365
  0.9595  0.8275  0.8275  0.7202  0.7202  0.6287

 Free energy of the ion-electron system (eV)
  ---------------------------------------------------
  alpha Z        PSCENC =        18.65691695
  Ewald energy   TEWEN  =      6221.61188061
  -Hartree energ DENC   =     -8423.19087184
  -exchange      EXHF   =         0.00000000
  -V(xc)+E(xc)   XCENC  =        23.60164767
  PAW double counting   =      1116.00017504    -1025.61301848
  entropy T*S    EENTRO =         0.00000000
  eigenvalues    EBANDS =      -482.94187419
  atomic energy  EATOM  =      2503.28425743
  Solvation  Ediel_sol  =         0.00000000
  ---------------------------------------------------
  free energy    TOTEN  =       -48.59088681 eV

  energy without entropy =      -48.59088681  energy(sigma->0) =      -48.59088681


--------------------------------------------------------------------------------------------------------




--------------------------------------- Iteration      1(  22)  ---------------------------------------


    POTLOK:  cpu time   99.5360: real time   99.8516
    SETDIJ:  cpu time    0.0720: real time    0.0696
     EDDAV:  cpu time   39.7280: real time   40.1328
 BZINTS: Fermi energy: -4.128290; 57.000000 electrons
         Band energy:-483.041696;  BLOECHL correction:  0.000000
       DOS:  cpu time    0.0000: real time    0.0017
    --------------------------------------------
      LOOP:  cpu time  139.3400: real time  140.0556

 eigenvalue-minimisations  :   920
 total energy-change (2. order) :-0.5817138E-04  (-0.4149544E-04)
 number of electron      56.9999994 magnetization       5.0046545
 augmentation part       -0.5055752 magnetization       4.7949950

 Free energy of the ion-electron system (eV)
  ---------------------------------------------------
  alpha Z        PSCENC =        18.65691695
  Ewald energy   TEWEN  =      6221.61188061
  -Hartree energ DENC   =     -8423.10799043
  -exchange      EXHF   =         0.00000000
  -V(xc)+E(xc)   XCENC  =        23.61948569
  PAW double counting   =      1115.96369878    -1025.57749822
  entropy T*S    EENTRO =         0.00000000
  eigenvalues    EBANDS =      -483.04169579
  atomic energy  EATOM  =      2503.28425743
  Solvation  Ediel_sol  =         0.00000000
  ---------------------------------------------------
  free energy    TOTEN  =       -48.59094498 eV

  energy without entropy =      -48.59094498  energy(sigma->0) =      -48.59094498


--------------------------------------------------------------------------------------------------------




 average (electrostatic) potential at core
  the test charge radii are     1.1394  0.9892  0.9587  0.9698
  (the norm of the test charge is              1.0000)
       1 -52.7064       2 -52.7062       3 -94.8408       4 -93.7721       5 -95.1508
       6 -95.1507       7 -95.1507       8 -95.1353       9 -95.1353      10 -95.1353



 E-fermi :  -4.1283     XC(G=0):  -2.9544     alpha+bet : -2.1341


 spin component 1

[...]
     18      -5.6460      1.00000
     19      -5.5582      1.00000
     20      -5.1418      1.00000
     21      -5.1084      1.00000
     22      -4.6839      1.00000
     23      -4.4909      1.00000
     24      -4.2529      1.00000
     25      -4.0528      1.00000
     26      -2.3403      1.06375
     27      -1.4323      0.00000
     28      -1.3604      0.00000
     29      -1.0286      0.00000
     30      -0.7233      0.00000
     31      -0.6019      0.00000
     32      -0.5607      0.00000
     33      -0.2253      0.00000
     34      -0.1439      0.00000
     35       0.1094      0.00000
     36       0.3220      0.00000
     37       0.9423      0.00000
     38       0.9582      0.00000
     39       1.4163      0.00000
     40       1.9453      0.00000

 k-point     5 :      -0.4000    0.2000    0.0000
  band No.  band energies     occupation 
      1     -17.4801      1.00000
      2     -16.2175      1.00000
      3     -16.0790      1.00000
      4     -15.9022      1.00000
      5     -15.4820      1.00000
      6     -15.3348      1.00000
      7     -12.1376      1.00000
      8      -9.8451      1.00000
      9      -8.4449      1.00000
     10      -7.9846      1.00000
     11      -7.7734      1.00000
     12      -7.2846      1.00000
     13      -7.0072      1.00000
     14      -6.4437      1.00000
     15      -6.1070      1.00000
     16      -6.0535      1.00000
     17      -5.8806      1.00000
     18      -5.5281      1.00000
     19      -5.4390      1.00000
     20      -5.2615      1.00000
     21      -5.0625      1.00000
     22      -4.5843      1.00000
     23      -4.3747      1.00000
     24      -4.2401      1.00000
     25      -4.0877      1.00000
     26      -2.7252      1.00000
     27      -1.6556      0.00000
     28      -1.5159      0.00000
     29      -0.9827      0.00000
     30      -0.6968      0.00000
     31      -0.5540      0.00000
     32      -0.5505      0.00000
     33      -0.3292      0.00000
     34      -0.1752      0.00000
     35       0.2373      0.00000
     36       0.2616      0.00000
     37       0.5707      0.00000
     38       1.0504      0.00000
     39       1.3871      0.00000
     40       2.0290      0.00000


--------------------------------------------------------------------------------------------------------


 soft charge-density along one line, spin component           1
         0         1         2         3         4         5         6         7         8         9
 total charge-density along one line

 soft charge-density along one line, spin component           2
         0         1         2         3         4         5         6         7         8         9
 total charge-density along one line

 pseudopotential strength for first ion, spin component:           1
 -8.743   0.084  -0.000   0.010  -0.000   0.672  -0.023   0.000
  0.084  -8.669   0.000   0.000   0.010  -0.023   0.652  -0.000
 -0.000   0.000  -8.853   0.000   0.000   0.000  -0.000   0.702
  0.010   0.000   0.000  -8.669  -0.084  -0.003  -0.000  -0.000
 -0.000   0.010   0.000  -0.084  -8.743   0.000  -0.003  -0.000
  0.672  -0.023   0.000  -0.003   0.000   0.366   0.006  -0.000
 -0.023   0.652  -0.000  -0.000  -0.003   0.006   0.371   0.000
  0.000  -0.000   0.702  -0.000  -0.000  -0.000   0.000   0.358
 -0.003  -0.000  -0.000   0.652   0.023   0.001   0.000   0.000
  0.000  -0.003  -0.000   0.023   0.672  -0.000   0.001   0.000
 -0.000  -0.000   0.003  -0.000   0.000  -0.000   0.000  -0.001
  0.000   0.000  -0.001   0.000  -0.000  -0.000  -0.000   0.000
  0.000   0.006   0.000  -0.000   0.001   0.000  -0.001  -0.000
 -0.000  -0.000   0.006  -0.000  -0.000   0.000   0.000  -0.001
  0.001  -0.000   0.000   0.006  -0.000  -0.000   0.000  -0.000
 -0.000  -0.004  -0.000   0.000  -0.001   0.000   0.001   0.000
  0.000   0.000  -0.004   0.000   0.000  -0.000  -0.000   0.001
 -0.001   0.000  -0.000  -0.004   0.000   0.000  -0.000   0.000
 pseudopotential strength for first ion, spin component:           2
 -7.230  -0.169  -0.000  -0.013  -0.000   0.245   0.044   0.000
 -0.169  -7.434   0.000   0.000  -0.013   0.044   0.298  -0.000
 -0.000   0.000  -7.101   0.000   0.000   0.000  -0.000   0.212
 -0.013   0.000   0.000  -7.434   0.169   0.003  -0.000  -0.000
 -0.000  -0.013   0.000   0.169  -7.230   0.000   0.003  -0.000
  0.245   0.044   0.000   0.003   0.000   0.483  -0.011  -0.000
  0.044   0.298  -0.000  -0.000   0.003  -0.011   0.469   0.000
  0.000  -0.000   0.212  -0.000  -0.000  -0.000   0.000   0.491
  0.003  -0.000  -0.000   0.298  -0.044  -0.001   0.000   0.000
  0.000   0.003  -0.000  -0.044   0.245  -0.000  -0.001   0.000
 -0.000  -0.000   0.007  -0.000   0.000  -0.000   0.000  -0.001
  0.000   0.000  -0.001   0.000  -0.000  -0.000  -0.000   0.000
  0.000   0.006   0.000  -0.000   0.001   0.000  -0.001  -0.000
 -0.000  -0.000   0.007  -0.000   0.000   0.000   0.000  -0.002
  0.001  -0.000   0.000   0.006  -0.000  -0.000   0.000  -0.000
 -0.000  -0.004  -0.000   0.000  -0.001   0.000   0.001   0.000
  0.000   0.000  -0.004   0.000  -0.000  -0.000  -0.000   0.001
 -0.001   0.000  -0.000  -0.004   0.000   0.000  -0.000   0.000
 total augmentation occupancy for first ion, spin component:           1
  1.009  -0.112   0.000   0.016  -0.000   0.081   0.253  -0.000   0.014   0.000  -0.000  -0.000   0.001   0.000   0.008  -0.000
 -0.112   0.926  -0.000  -0.000   0.016   0.250   0.334   0.000   0.000   0.014  -0.000  -0.000   0.013   0.000  -0.005   0.001
  0.000  -0.000   1.054  -0.000  -0.000  -0.000   0.000  -0.113   0.000   0.000  -0.008  -0.012  -0.000   0.006   0.000  -0.000
  0.016  -0.000  -0.000   0.926   0.112   0.014  -0.000   0.000   0.334  -0.250   0.000   0.000   0.005   0.000   0.013   0.000
 -0.000   0.016  -0.000   0.112   1.009  -0.000   0.014   0.000  -0.253   0.081   0.000   0.000   0.008  -0.000  -0.001   0.000
  0.081   0.250  -0.000   0.014  -0.000   0.239   0.121   0.000   0.003  -0.000   0.000  -0.000   0.008   0.000   0.013   0.000
  0.253   0.334   0.000  -0.000   0.014   0.121   0.350   0.000  -0.000   0.003   0.000   0.000   0.016   0.000  -0.003  -0.000
 -0.000   0.000  -0.113   0.000   0.000   0.000   0.000   0.211   0.000  -0.000   0.047  -0.011  -0.000   0.002   0.000   0.000
  0.014   0.000   0.000   0.334  -0.253   0.003  -0.000   0.000   0.350  -0.121   0.000   0.000   0.003   0.000   0.016  -0.000
  0.000   0.014   0.000  -0.250   0.081  -0.000   0.003  -0.000  -0.121   0.239  -0.000   0.000   0.013  -0.000  -0.008  -0.002
 -0.000  -0.000  -0.008   0.000   0.000   0.000   0.000   0.047   0.000  -0.000   1.063  -0.212   0.000   0.015   0.000   0.000
 -0.000  -0.000  -0.012   0.000   0.000  -0.000   0.000  -0.011   0.000   0.000  -0.212   0.086  -0.000  -0.007   0.000   0.000
  0.001   0.013  -0.000   0.005   0.008   0.008   0.016  -0.000   0.003   0.013   0.000   0.000   0.241   0.000  -0.000  -0.005
  0.000   0.000   0.006  -0.000  -0.000   0.000   0.000   0.002  -0.000  -0.000   0.015  -0.007   0.000   0.258   0.000   0.000
  0.008  -0.005   0.000   0.013  -0.001   0.013  -0.003   0.000   0.016  -0.008   0.000   0.000  -0.000   0.000   0.241  -0.000
 -0.000   0.001  -0.000   0.000   0.000   0.000  -0.000   0.000  -0.000  -0.002   0.000  -0.000  -0.005   0.000  -0.000   0.000
  0.000  -0.000   0.002  -0.000  -0.000  -0.000   0.000  -0.001   0.000   0.000  -0.000   0.000   0.000  -0.006   0.000   0.000
  0.000  -0.000  -0.000   0.001   0.000  -0.002   0.000  -0.000  -0.000  -0.000   0.000   0.000   0.000   0.000  -0.005  -0.000
 total augmentation occupancy for first ion, spin component:           2
  0.652  -0.280   0.000  -0.023  -0.000  -0.177   0.075  -0.000   0.003  -0.002  -0.000  -0.000  -0.001   0.000  -0.000  -0.000
 -0.280   0.346  -0.000  -0.000  -0.023   0.076  -0.096   0.000  -0.002   0.001  -0.000  -0.000   0.000  -0.000   0.005   0.001
  0.000  -0.000   0.890  -0.000  -0.000  -0.000   0.000  -0.258   0.000   0.000  -0.021  -0.003  -0.000   0.006  -0.000  -0.000
 -0.023  -0.000  -0.000   0.346   0.280   0.001   0.002   0.000  -0.096  -0.076   0.000   0.000  -0.005  -0.000   0.000   0.000
 -0.000  -0.023  -0.000   0.280   0.652   0.002   0.003   0.000  -0.075  -0.177   0.000   0.000  -0.000  -0.000   0.001   0.001
 -0.177   0.076  -0.000   0.001   0.002   0.008  -0.051   0.000  -0.004  -0.000   0.000   0.000   0.002  -0.000  -0.006   0.000
  0.075  -0.096   0.000   0.002   0.003  -0.051  -0.044  -0.000   0.000  -0.004   0.000   0.000  -0.001   0.000   0.002  -0.000
 -0.000   0.000  -0.258   0.000   0.000   0.000  -0.000   0.072  -0.000  -0.000   0.016   0.004   0.000  -0.001  -0.000   0.000
  0.003  -0.002   0.000  -0.096  -0.075  -0.004   0.000  -0.000  -0.044   0.051   0.000   0.000  -0.002   0.000  -0.001  -0.000
 -0.002   0.001   0.000  -0.076  -0.177  -0.000  -0.004  -0.000   0.051   0.008  -0.000  -0.000  -0.006   0.000  -0.002  -0.000
 -0.000  -0.000  -0.021   0.000   0.000   0.000   0.000   0.016   0.000  -0.000   0.135   0.059  -0.000   0.001   0.000   0.000
 -0.000  -0.000  -0.003   0.000   0.000   0.000   0.000   0.004   0.000  -0.000   0.059  -0.023  -0.000   0.001   0.000   0.000
 -0.001   0.000  -0.000  -0.005  -0.000   0.002  -0.001   0.000  -0.002  -0.006  -0.000  -0.000   0.021   0.000  -0.000   0.002
  0.000  -0.000   0.006   0.000  -0.000  -0.000   0.000  -0.001  -0.000   0.000   0.001   0.001   0.000   0.019  -0.000   0.000
 -0.000   0.005  -0.000   0.000   0.001  -0.006   0.002  -0.000  -0.001  -0.002   0.000   0.000  -0.000   0.000   0.021   0.000
 -0.000   0.001  -0.000   0.000   0.001   0.000  -0.000   0.000  -0.000  -0.000   0.000   0.000   0.002   0.000   0.000  -0.000
  0.000   0.000   0.002   0.000  -0.000  -0.000   0.000  -0.001   0.000   0.000   0.000  -0.000   0.000   0.002   0.000   0.000
  0.001  -0.000   0.000   0.001   0.000  -0.000   0.000  -0.000  -0.000  -0.000   0.000   0.000  -0.000   0.000   0.002   0.000


------------------------ aborting loop because EDIFF is reached ----------------------------------------





 total charge     

# of ion       s       p       d       tot
------------------------------------------
    1        0.353   0.505   4.285   5.143
    2        0.353   0.505   4.287   5.145
    3        0.730   0.887   0.000   1.616
    4        1.052   1.380   0.000   2.432
    5        1.375   2.336   0.000   3.711
    6        1.360   2.327   0.000   3.687
    7        1.371   2.331   0.000   3.702
    8        1.358   2.389   0.000   3.747
    9        1.350   2.392   0.000   3.743
   10        1.355   2.389   0.000   3.744
--------------------------------------------------
tot         10.657  17.441   8.572  36.670



 magnetization (x)

# of ion       s       p       d       tot
------------------------------------------
    1        0.030   0.035   2.698   2.762
    2        0.030   0.035   2.696   2.761
    3        0.003   0.018   0.000   0.021
    4       -0.033  -0.002   0.000  -0.036
    5       -0.004  -0.075   0.000  -0.079
    6       -0.003  -0.065   0.000  -0.068
    7       -0.006  -0.076   0.000  -0.082
    8        0.001  -0.050   0.000  -0.049
    9       -0.001  -0.034   0.000  -0.035
   10       -0.001  -0.044   0.000  -0.045
--------------------------------------------------
tot          0.015  -0.260   5.394   5.149

    CHARGE:  cpu time    2.0920: real time    2.1122
    FORLOC:  cpu time    0.1080: real time    0.1058
    FORNL :  cpu time    6.0120: real time    6.0394
    STRESS:  cpu time   22.1480: real time   22.2960
    FORCOR:  cpu time  105.0240: real time  105.6883
    FORHAR:  cpu time    0.4360: real time    0.4381
    MIXING:  cpu time    0.0520: real time    0.0504
    OFIELD:  cpu time    0.0000: real time    0.0000

  FORCE on cell =-STRESS in cart. coord.  units (eV):
  Direction    XX          YY          ZZ          XY          YZ          ZX
  --------------------------------------------------------------------------------------
  Alpha Z    27.70161    27.70161    27.70161
  Ewald    9882.35028  9882.34735-11616.76503    -0.00112    -0.00047    -0.00085
  Hartree 10218.44981 10218.45009-10047.98601    -0.00001     0.00004     0.00006
  E(xc)    -214.58074  -214.58075  -214.30618     0.00002     0.00000     0.00001
  Local  -21016.35077-21016.34965 20705.63122     0.00068     0.00024     0.00044
  n-local   509.60709   511.42683   517.30500     0.86828     0.74610     0.69172
  augment   -60.03833   -60.03829   -64.54880     0.00001     0.00001     0.00003
  Kinetic   655.72437   648.15061   692.89155    -4.38260    -0.41361    -0.77942
  Fock        0.00000     0.00000     0.00000     0.00000     0.00000     0.00000
  -------------------------------------------------------------------------------------
  Total      -0.01443    -0.01443    -0.07663     0.00000     0.00000     0.00000
  in kB      -0.03542    -0.03542    -0.18817     0.00000     0.00000     0.00000
  external pressure =       -0.09 kB  Pullay stress =        0.00 kB


 VOLUME and BASIS-vectors are now :
 -----------------------------------------------------------------------------
  energy-cutoff  :      520.00
  volume of cell :      652.51
      direct lattice vectors                 reciprocal lattice vectors
     5.928624806  0.000000056 -0.000000000     0.168673181 -0.097383499  0.000000000
     2.964312069  5.134339510 -0.000000000    -0.000000002  0.194767020  0.000000000
    -0.000000000 -0.000000000 21.436114882     0.000000000  0.000000000  0.046650244

  length of vectors
     5.928624806  5.928624482 21.436114882     0.194767009  0.194767020  0.046650244


 FORCES acting on ions
    electron-ion (+dipol)            ewald-force                    non-local-force                 convergence-correction
 -----------------------------------------------------------------------------------------------
   -.163E-03 -.894E-04 0.122E+02   0.432E-03 0.252E-03 -.126E+02   -.695E-17 -.454E-20 0.226E+00   0.728E-08 0.753E-11 0.174E-01
   0.157E-03 0.104E-03 0.112E+02   -.428E-03 -.250E-03 -.115E+02   0.693E-17 -.417E-20 0.208E+00   0.650E-07 0.393E-07 0.173E-01
   -.285E-04 -.266E-04 0.226E+03   -.210E-03 -.118E-03 -.222E+03   0.211E-16 0.753E-19 -.375E+01   0.668E-08 0.136E-07 -.285E-02
   0.519E-04 0.196E-04 -.290E+03   0.275E-03 0.154E-03 0.286E+03   -.384E-16 0.346E-16 0.398E+01   -.102E-07 -.137E-07 0.353E-01
   0.119E+02 -.376E-01 -.467E+03   -.162E+02 0.313E-01 0.471E+03   0.437E+01 -.698E-02 -.366E+01   0.215E-02 0.110E-01 0.457E-01
   -.596E+01 -.103E+02 -.467E+03   0.813E+01 0.140E+02 0.471E+03   -.219E+01 -.378E+01 -.366E+01   0.844E-02 -.736E-02 0.457E-01
   -.590E+01 0.103E+02 -.467E+03   0.807E+01 -.140E+02 0.471E+03   -.218E+01 0.379E+01 -.366E+01   -.106E-01 -.363E-02 0.457E-01
   -.789E+01 -.310E-02 0.480E+03   0.106E+02 -.121E-01 -.484E+03   -.274E+01 0.794E-02 0.348E+01   0.198E-02 0.100E-01 -.158E-01
   0.395E+01 0.684E+01 0.480E+03   -.532E+01 -.920E+01 -.484E+03   0.138E+01 0.237E+01 0.348E+01   0.768E-02 -.672E-02 -.158E-01
   0.395E+01 -.684E+01 0.480E+03   -.530E+01 0.921E+01 -.484E+03   0.136E+01 -.237E+01 0.348E+01   -.966E-02 -.329E-02 -.158E-01
 -----------------------------------------------------------------------------------------------
   0.407E-04 0.378E-04 -.295E+00   0.000E+00 -.533E-14 -.171E-12   0.222E-15 -.444E-15 0.126E+00   0.850E-07 0.561E-07 0.157E+00


 POSITION                                       TOTAL-FORCE (eV/Angst)
 -----------------------------------------------------------------------------------
      2.96431      1.71144     10.71645        -0.000000     -0.000000     -0.114024
      5.92863      3.42289     10.71967        -0.000000     -0.000000     -0.128549
     -0.00000     -0.00000      9.64646        -0.000000     -0.000000      0.075929
     -0.00000     -0.00000     11.86503        -0.000000     -0.000000      0.051983
      3.78058      0.00081     12.21077         0.034835     -0.001392     -0.004252
      1.07473      1.85986     12.21077        -0.018623     -0.029472     -0.004252
      4.03764      3.27367     12.21077        -0.016212      0.030864     -0.004252
      5.05386      5.13340      9.18748        -0.005721      0.001831      0.042473
      7.84734      3.32520      9.18748         0.004446      0.004039      0.042473
      4.88466      1.81007      9.18748         0.001275     -0.005869      0.042473
 -----------------------------------------------------------------------------------
    total drift:                                0.000041      0.000038     -0.012088


--------------------------------------------------------------------------------------------------------



  FREE ENERGIE OF THE ION-ELECTRON SYSTEM (eV)
  ---------------------------------------------------
  free  energy   TOTEN  =       -56.11435095 eV

  energy  without entropy=      -56.11435095  energy(sigma->0) =      -56.11435095

 d Force = 0.5584549E-03[-0.593E-03, 0.171E-02]  d Energy = 0.2140822E-02-0.158E-02
 d Force = 0.5638986E+01[ 0.564E+01, 0.564E+01]  d Ewald  =-0.3446973E+01 0.909E+01


--------------------------------------------------------------------------------------------------------


    POTLOK:  cpu time  104.6360: real time  105.3379


--------------------------------------------------------------------------------------------------------




--------------------------------------------------------------------------------------------------------


  
 reached required accuracy - stopping structural energy minimisation
     LOOP+:  cpu time  894.9160: real time  902.7167
    4ORBIT:  cpu time    0.0000: real time    0.0000



 total charge     

# of ion       s       p       d       tot
------------------------------------------
    1        0.353   0.505   4.285   5.143
    2        0.353   0.505   4.287   5.145
    3        0.730   0.887   0.000   1.616
    4        1.052   1.380   0.000   2.432
    5        1.375   2.336   0.000   3.711
    6        1.360   2.327   0.000   3.687
    7        1.371   2.331   0.000   3.702
    8        1.358   2.389   0.000   3.747
    9        1.350   2.392   0.000   3.743
   10        1.355   2.389   0.000   3.744
--------------------------------------------------
tot         10.657  17.441   8.572  36.670



 magnetization (x)

# of ion       s       p       d       tot
------------------------------------------
    1        0.030   0.035   2.698   2.762
    2        0.030   0.035   2.696   2.761
    3        0.003   0.018   0.000   0.021
    4       -0.033  -0.002   0.000  -0.036
    5       -0.004  -0.075   0.000  -0.079
    6       -0.003  -0.065   0.000  -0.068
    7       -0.006  -0.076   0.000  -0.082
    8        0.001  -0.050   0.000  -0.049
    9       -0.001  -0.034   0.000  -0.035
   10       -0.001  -0.044   0.000  -0.045
--------------------------------------------------
tot          0.015  -0.260   5.394   5.149

 BZINTS: Fermi energy: -1.816831; 57.000000 electrons
         Band energy:-466.354964;  BLOECHL correction: -0.028653

 total amount of memory used by VASP MPI-rank0   174713. kBytes
=======================================================================

   base      :      30000. kBytes
   nonlr-proj:       8559. kBytes
   fftplans  :      20284. kBytes
   grid      :      94580. kBytes
   one-center:        311. kBytes
   wavefun   :      20979. kBytes

  
  
 General timing and accounting informations for this job:
 ========================================================
  
                  Total CPU time used (sec):    12793.276
                            User time (sec):    12736.412
                          System time (sec):       56.864
                         Elapsed time (sec):    12891.638
  
                   Maximum memory used (kb):      592644.
                   Average memory used (kb):           0.
  
                          Minor page faults:     13090630
                          Major page faults:            5
                 Voluntary context switches:          836
