 vasp.5.4.4.18Apr17-6-g9f103f2a35 (build May  1 2020 15:48:39) complex           
 executed on             LinuxGNU date 2020.07.01  19:53:18
 running on    8 total cores
 distrk:  each k-point on    8 cores,    1 groups
 distr:  one band on NCORES_PER_BAND=   1 cores,    8 groups


--------------------------------------------------------------------------------------------------------


 INCAR:
 POTCAR:   PAW_PBE Cr 06Sep2000                   
 POTCAR:   PAW_PBE Ge 05Jan2001                   
 POTCAR:   PAW_PBE Si 05Jan2001                   
 POTCAR:   PAW_PBE Se 06Sep2000                   

 ----------------------------------------------------------------------------- 
|                                                                             |
|           W    W    AA    RRRRR   N    N  II  N    N   GGGG   !!!           |
|           W    W   A  A   R    R  NN   N  II  NN   N  G    G  !!!           |
|           W    W  A    A  R    R  N N  N  II  N N  N  G       !!!           |
|           W WW W  AAAAAA  RRRRR   N  N N  II  N  N N  G  GGG   !            |
|           WW  WW  A    A  R   R   N   NN  II  N   NN  G    G                |
|           W    W  A    A  R    R  N    N  II  N    N   GGGG   !!!           |
|                                                                             |
|      For optimal performance we recommend to set                            |
|        NCORE= 4 - approx SQRT( number of cores)                             |
|      NCORE specifies how many cores store one orbital (NPAR=cpu/NCORE).     |
|      This setting can  greatly improve the performance of VASP for DFT.     |
|      The default,   NCORE=1            might be grossly inefficient         |
|      on modern multi-core architectures or massively parallel machines.     |
|      Do your own testing !!!!                                               |
|      Unfortunately you need to use the default for GW and RPA calculations. |
|      (for HF NCORE is supported but not extensively tested yet)             |
|                                                                             |
 ----------------------------------------------------------------------------- 


 ----------------------------------------------------------------------------- 
|                                                                             |
|  ADVICE TO THIS USER RUNNING 'VASP/VAMP'   (HEAR YOUR MASTER'S VOICE ...):  |
|                                                                             |
|      You have switched on vdW-DFT.                                          |
|      This routine was written and supplied by Jiri Klimes.                  |
|      We recommed that you carefully read and cite the following             |
|      publication                                                            |
|      J. Klimes, D.R. Bowler, A. Michelides                                  |
|        J. Phys.: Cond Matt. 22 022201 (2010)                                |
|      J. Klimes, D.R. Bowler, A. Michelides                                  |
|        Phys. Rev. B. 83, 195131 (2011)                                      |
|      and references therein.                                                |
|                                                                             |
 ----------------------------------------------------------------------------- 

 POTCAR:   PAW_PBE Cr 06Sep2000                   
   VRHFIN =Cr : d5 s1                                                           
   LEXCH  = PE                                                                  
   EATOM  =   276.9744 eV,   20.3570 Ry                                         
                                                                                
   TITEL  = PAW_PBE Cr 06Sep2000                                                
   LULTRA =        F    use ultrasoft PP ?                                      
   IUNSCR =        1    unscreen: 0-lin 1-nonlin 2-no                           
   RPACOR =    2.080    partial core radius                                     
   POMASS =   51.996; ZVAL   =    6.000    mass and valenz                      
   RCORE  =    2.500    outmost cutoff radius                                   
   RWIGS  =    2.500; RWIGS  =    1.323    wigner-seitz radius (au A)           
   ENMAX  =  227.082; ENMIN  =  170.311 eV                                      
   RCLOC  =    1.721    cutoff for local pot                                    
   LCOR   =        T    correct aug charges                                     
   LPAW   =        T    paw PP                                                  
   EAUG   =  402.108                                                            
   DEXC   =    -.035                                                            
   RMAX   =    3.060    core radius for proj-oper                               
   RAUG   =    1.300    factor for augmentation sphere                          
   RDEP   =    2.609    radius for radial grids                                 
   QCUT   =   -4.085; QGAM   =    8.171    optimization parameters              
                                                                                
   Description                                                                  
     l     E      TYP  RCUT    TYP  RCUT                                        
     2   .000     23  2.500                                                     
     2   .000     23  2.500                                                     
     0   .000     23  2.500                                                     
     0   .000     23  2.500                                                     
     1  -.400     23  2.500                                                     
     1  2.000     23  2.500                                                     
     3   .000      7   .000                                                     
  local pseudopotential read in
  partial core-charges read in
  atomic valenz-charges read in
  non local Contribution for L=           2  read in
    real space projection operators read in
  non local Contribution for L=           2  read in
    real space projection operators read in
  non local Contribution for L=           0  read in
    real space projection operators read in
  non local Contribution for L=           0  read in
    real space projection operators read in
  non local Contribution for L=           1  read in
    real space projection operators read in
  non local Contribution for L=           1  read in
    real space projection operators read in
    PAW grid and wavefunctions read in

   number of l-projection  operators is LMAX  =           6
   number of lm-projection operators is LMMAX =          18

 POTCAR:   PAW_PBE Ge 05Jan2001                   
   VRHFIN =Ge: s2p2                                                             
   LEXCH  = PE                                                                  
   EATOM  =   104.9960 eV,    7.7170 Ry                                         
                                                                                
   TITEL  = PAW_PBE Ge 05Jan2001                                                
   LULTRA =        F    use ultrasoft PP ?                                      
   IUNSCR =        1    unscreen: 0-lin 1-nonlin 2-no                           
   RPACOR =    2.170    partial core radius                                     
   POMASS =   72.610; ZVAL   =    4.000    mass and valenz                      
   RCORE  =    2.300    outmost cutoff radius                                   
   RWIGS  =    2.300; RWIGS  =    1.217    wigner-seitz radius (au A)           
   ENMAX  =  173.807; ENMIN  =  130.355 eV                                      
   ICORE  =        3    local potential                                         
   LCOR   =        T    correct aug charges                                     
   LPAW   =        T    paw PP                                                  
   EAUG   =  385.843                                                            
   DEXC   =    -.138                                                            
   RMAX   =    3.497    core radius for proj-oper                               
   RAUG   =    1.300    factor for augmentation sphere                          
   RDEP   =    2.318    radius for radial grids                                 
   QCUT   =   -3.574; QGAM   =    7.148    optimization parameters              
                                                                                
   Description                                                                  
     l     E      TYP  RCUT    TYP  RCUT                                        
     0   .000     23  2.300                                                     
     0   .000     23  2.300                                                     
     1   .000     23  2.300                                                     
     1   .000     23  2.300                                                     
     2   .000     23  2.300                                                     
     3  -.100      7  2.300                                                     
  local pseudopotential read in
  partial core-charges read in
  atomic valenz-charges read in
  non local Contribution for L=           0  read in
    real space projection operators read in
  non local Contribution for L=           0  read in
    real space projection operators read in
  non local Contribution for L=           1  read in
    real space projection operators read in
  non local Contribution for L=           1  read in
    real space projection operators read in
  non local Contribution for L=           2  read in
    real space projection operators read in
    PAW grid and wavefunctions read in

   number of l-projection  operators is LMAX  =           5
   number of lm-projection operators is LMMAX =          13

 POTCAR:   PAW_PBE Si 05Jan2001                   
   VRHFIN =Si: s2p2                                                             
   LEXCH  = PE                                                                  
   EATOM  =   103.0669 eV,    7.5752 Ry                                         
                                                                                
   TITEL  = PAW_PBE Si 05Jan2001                                                
   LULTRA =        F    use ultrasoft PP ?                                      
   IUNSCR =        1    unscreen: 0-lin 1-nonlin 2-no                           
   RPACOR =    1.500    partial core radius                                     
   POMASS =   28.085; ZVAL   =    4.000    mass and valenz                      
   RCORE  =    1.900    outmost cutoff radius                                   
   RWIGS  =    2.480; RWIGS  =    1.312    wigner-seitz radius (au A)           
   ENMAX  =  245.345; ENMIN  =  184.009 eV                                      
   ICORE  =        2    local potential                                         
   LCOR   =        T    correct aug charges                                     
   LPAW   =        T    paw PP                                                  
   EAUG   =  322.069                                                            
   DEXC   =    -.007                                                            
   RMAX   =    2.944    core radius for proj-oper                               
   RAUG   =    1.300    factor for augmentation sphere                          
   RDEP   =    1.993    radius for radial grids                                 
   QCUT   =   -4.246; QGAM   =    8.493    optimization parameters              
                                                                                
   Description                                                                  
     l     E      TYP  RCUT    TYP  RCUT                                        
     0   .000     23  1.900                                                     
     0   .000     23  1.900                                                     
     1   .000     23  1.900                                                     
     1   .000     23  1.900                                                     
     2   .000      7  1.900                                                     
  local pseudopotential read in
  partial core-charges read in
  atomic valenz-charges read in
  non local Contribution for L=           0  read in
    real space projection operators read in
  non local Contribution for L=           0  read in
    real space projection operators read in
  non local Contribution for L=           1  read in
    real space projection operators read in
  non local Contribution for L=           1  read in
    real space projection operators read in
    PAW grid and wavefunctions read in

   number of l-projection  operators is LMAX  =           4
   number of lm-projection operators is LMMAX =           8

 POTCAR:   PAW_PBE Se 06Sep2000                   
   VRHFIN =Se: s2p4                                                             
   LEXCH  = PE                                                                  
   EATOM  =   256.9644 eV,   18.8864 Ry                                         
                                                                                
   TITEL  = PAW_PBE Se 06Sep2000                                                
   LULTRA =        F    use ultrasoft PP ?                                      
   IUNSCR =        1    unscreen: 0-lin 1-nonlin 2-no                           
   RPACOR =    1.900    partial core radius                                     
   POMASS =   78.960; ZVAL   =    6.000    mass and valenz                      
   RCORE  =    2.100    outmost cutoff radius                                   
   RWIGS  =    2.200; RWIGS  =    1.164    wigner-seitz radius (au A)           
   ENMAX  =  211.534; ENMIN  =  158.651 eV                                      
   ICORE  =        3    local potential                                         
   LCOR   =        T    correct aug charges                                     
   LPAW   =        T    paw PP                                                  
   EAUG   =  446.842                                                            
   DEXC   =    -.031                                                            
   RMAX   =    3.170    core radius for proj-oper                               
   RAUG   =    1.300    factor for augmentation sphere                          
   RDEP   =    2.177    radius for radial grids                                 
   QCUT   =   -3.943; QGAM   =    7.886    optimization parameters              
                                                                                
   Description                                                                  
     l     E      TYP  RCUT    TYP  RCUT                                        
     0   .000     23  2.100                                                     
     0   .000     23  2.100                                                     
     1   .000     23  2.100                                                     
     1   .000     23  2.100                                                     
     2   .000     23  2.100                                                     
     3  -.100      7  2.100                                                     
  local pseudopotential read in
  partial core-charges read in
  atomic valenz-charges read in
  non local Contribution for L=           0  read in
    real space projection operators read in
  non local Contribution for L=           0  read in
    real space projection operators read in
  non local Contribution for L=           1  read in
    real space projection operators read in
  non local Contribution for L=           1  read in
    real space projection operators read in
  non local Contribution for L=           2  read in
    real space projection operators read in
    PAW grid and wavefunctions read in

   number of l-projection  operators is LMAX  =           5
   number of lm-projection operators is LMMAX =          13

 Optimization of the real space projectors (new method)

 maximal supplied QI-value         = 15.12
 optimisation between [QCUT,QGAM] = [ 11.64, 23.28] = [ 37.95,151.78] Ry 
 Optimized for a Real-space Cutoff    1.49 Angstroem

   l    n(q)    QCUT    max X(q) W(low)/X(q) W(high)/X(q)  e(spline) 
   2      9    11.641     4.777    0.25E-04    0.21E-05    0.63E-07
   2      9    11.641    31.132    0.13E-03    0.22E-03    0.64E-06
   0     10    11.641    20.416    0.11E-04    0.74E-05    0.19E-07
   0     10    11.641    45.408    0.10E-03    0.85E-04    0.30E-06
   1     10    11.641     7.848    0.22E-04    0.23E-04    0.56E-07
   1     10    11.641     9.895    0.85E-04    0.54E-04    0.16E-06
 Optimization of the real space projectors (new method)

 maximal supplied QI-value         = 16.25
 optimisation between [QCUT,QGAM] = [ 11.54, 23.24] = [ 37.28,151.24] Ry 
 Optimized for a Real-space Cutoff    1.28 Angstroem

   l    n(q)    QCUT    max X(q) W(low)/X(q) W(high)/X(q)  e(spline) 
   0      9    11.539     8.651    0.22E-04    0.16E-04    0.10E-07
   0      9    11.539    33.192    0.11E-03    0.16E-03    0.65E-07
   1      8    11.539     5.899    0.37E-04    0.28E-04    0.43E-07
   1      8    11.539    27.289    0.22E-03    0.28E-04    0.14E-06
   2      8    11.539     4.673    0.11E-03    0.18E-03    0.58E-07
 Optimization of the real space projectors (new method)

 maximal supplied QI-value         = 19.84
 optimisation between [QCUT,QGAM] = [ 11.51, 23.22] = [ 37.09,150.92] Ry 
 Optimized for a Real-space Cutoff    1.21 Angstroem

   l    n(q)    QCUT    max X(q) W(low)/X(q) W(high)/X(q)  e(spline) 
   0      8    11.508     8.708    0.18E-04    0.44E-05    0.47E-08
   0      8    11.508   106.241    0.70E-04    0.15E-03    0.51E-07
   1      8    11.508     5.901    0.63E-05    0.23E-04    0.21E-07
   1      8    11.508    73.241    0.15E-03    0.36E-04    0.79E-07
 Optimization of the real space projectors (new method)

 maximal supplied QI-value         = 17.95
 optimisation between [QCUT,QGAM] = [ 11.67, 23.34] = [ 38.13,152.52] Ry 
 Optimized for a Real-space Cutoff    1.25 Angstroem

   l    n(q)    QCUT    max X(q) W(low)/X(q) W(high)/X(q)  e(spline) 
   0      9    11.669     6.499    0.13E-04    0.81E-05    0.11E-07
   0      9    11.669    52.623    0.18E-03    0.46E-04    0.72E-07
   1      8    11.669     4.229    0.40E-04    0.45E-04    0.31E-07
   1      8    11.669    29.991    0.22E-03    0.36E-03    0.10E-06
   2      8    11.669     3.719    0.19E-03    0.46E-04    0.50E-07

 ----------------------------------------------------------------------------- 
|                                                                             |
|  ADVICE TO THIS USER RUNNING 'VASP/VAMP'   (HEAR YOUR MASTER'S VOICE ...):  |
|                                                                             |
|      You enforced a specific xc-type in the INCAR file,                     |
|      a different type was found on the POTCAR file                          |
|          I HOPE YOU KNOW, WHAT YOU ARE  DOING                               |
|                                                                             |
 ----------------------------------------------------------------------------- 

 PAW_PBE Cr 06Sep2000                   :
 energy of atom  1       EATOM= -276.9744
 kinetic energy error for atom=    0.0010 (will be added to EATOM!!)
 PAW_PBE Ge 05Jan2001                   :
 energy of atom  2       EATOM= -104.9960
 kinetic energy error for atom=    0.0002 (will be added to EATOM!!)
 PAW_PBE Si 05Jan2001                   :
 energy of atom  3       EATOM= -103.0669
 kinetic energy error for atom=    0.0005 (will be added to EATOM!!)
 PAW_PBE Se 06Sep2000                   :
 energy of atom  4       EATOM= -256.9644
 kinetic energy error for atom=    0.0007 (will be added to EATOM!!)


 POSCAR: Cr2 Ge Si Se6                           
  positions in direct lattice
  velocities in cartesian coordinates
  No initial velocities read in
 exchange correlation table for  LEXCH =       42
   RHO(1)=    0.500       N(1)  =     2000
   RHO(2)=  100.500       N(2)  =     4000



--------------------------------------------------------------------------------------------------------


 ion  position               nearest neighbor table
   1  0.333  0.333  0.500-   6 2.78   5 2.78   7 2.78   8 2.78  10 2.78   9 2.78
   2  0.667  0.667  0.500-   9 2.78   8 2.78  10 2.78   5 2.78   7 2.78   6 2.78
   3  0.000  0.000  0.448-   4 2.43   8 2.63  10 2.63   9 2.63
   4  0.000  0.000  0.552-   3 2.43   5 2.63   7 2.63   6 2.63
   5  0.626  0.000  0.574-   4 2.63   1 2.78   2 2.78
   6  0.000  0.373  0.574-   4 2.63   1 2.78   2 2.78
   7  0.373  0.626  0.574-   4 2.63   1 2.78   2 2.78
   8  0.374  1.000  0.426-   3 2.63   2 2.78   1 2.78
   9  1.000  0.627  0.426-   3 2.63   2 2.78   1 2.78
  10  0.627  0.374  0.426-   3 2.63   2 2.78   1 2.78

  LATTYP: Found a hexagonal cell.
 ALAT       =     6.9077769333
 C/A-ratio  =     3.3939410937
  
  Lattice vectors:
  
 A1 = (   3.4538890000,  -5.9823100000,   0.0000000000)
 A2 = (  -6.9077770000,   0.0000000000,   0.0000000000)
 A3 = (   0.0000000000,   0.0000000000, -23.4445880000)


Analysis of symmetry for initial positions (statically):
=====================================================================
 Subroutine PRICEL returns:
 Original cell was already a primitive cell.
 

 Routine SETGRP: Setting up the symmetry group for a 
 hexagonal supercell.


 Subroutine GETGRP returns: Found  3 space group operations
 (whereof  3 operations were pure point group operations)
 out of a pool of 24 trial point group operations.


The static configuration has the point symmetry C_3 .


Analysis of symmetry for dynamics (positions and initial velocities):
=====================================================================
 Subroutine PRICEL returns:
 Original cell was already a primitive cell.
 

 Routine SETGRP: Setting up the symmetry group for a 
 hexagonal supercell.


 Subroutine GETGRP returns: Found  3 space group operations
 (whereof  3 operations were pure point group operations)
 out of a pool of 24 trial point group operations.


The dynamic configuration has the point symmetry C_3 .


Analysis of constrained symmetry for selective dynamics:
=====================================================================
 Subroutine PRICEL returns:
 Original cell was already a primitive cell.
 

 Routine SETGRP: Setting up the symmetry group for a 
 hexagonal supercell.


 Subroutine GETGRP returns: Found  3 space group operations
 (whereof  3 operations were pure point group operations)
 out of a pool of 24 trial point group operations.


The constrained configuration has the point symmetry C_3 .


Analysis of structural, dynamic, and magnetic symmetry:
=====================================================================
 Subroutine PRICEL returns:
 Original cell was already a primitive cell.
 

 Routine SETGRP: Setting up the symmetry group for a 
 hexagonal supercell.


 Subroutine GETGRP returns: Found  3 space group operations
 (whereof  3 operations were pure point group operations)
 out of a pool of 24 trial point group operations.


The magnetic configuration has the point symmetry C_3 .


 Subroutine INISYM returns: Found  3 space group operations
 (whereof  3 operations are pure point group operations),
 and found     1 'primitive' translations



 KPOINTS: Kpoints from vasprun.xml                

Automatic generation of k-mesh.
Space group operators:
 irot       det(A)        alpha          n_x          n_y          n_z        tau_x        tau_y        tau_z
    1     1.000000     0.000000     1.000000     0.000000     0.000000     0.000000     0.000000     0.000000
    2     1.000000   120.000000     0.000000     0.000000     1.000000     0.000000     0.000000     0.000000
    3     1.000000   120.000000     0.000000     0.000000    -1.000000     0.000000     0.000000     0.000000
 
 Subroutine IBZKPT returns following result:
 ===========================================
 
 Found      5 irreducible k-points:
 
 Following reciprocal coordinates:
            Coordinates               Weight
  0.000000  0.000000  0.000000      1.000000
  0.200000  0.000000  0.000000      6.000000
  0.400000  0.000000  0.000000      6.000000
  0.400000  0.200000  0.000000      6.000000
 -0.400000  0.200000  0.000000      6.000000
 
 Following cartesian coordinates:
            Coordinates               Weight
  0.000000  0.000000  0.000000      1.000000
  0.028953 -0.016716  0.000000      6.000000
  0.057906 -0.033432  0.000000      6.000000
  0.057906  0.000000  0.000000      6.000000
 -0.057906  0.066864  0.000000      6.000000
 
 TETIRR: Found     15 inequivalent tetrahedra from      150


--------------------------------------------------------------------------------------------------------




 Dimension of arrays:
   k-points           NKPTS =      5   k-points in BZ     NKDIM =      5   number of bands    NBANDS=     40
   number of dos      NEDOS =    301   number of ions     NIONS =     10
   non local maximal  LDIM  =      6   non local SUM 2l+1 LMDIM =     18
   total plane-waves  NPLWV = 524880
   max r-space proj   IRMAX =   7543   max aug-charges    IRDMAX=  29641
   dimension x,y,z NGX =    54 NGY =   54 NGZ =  180
   dimension x,y,z NGXF=   108 NGYF=  108 NGZF=  360
   support grid    NGXF=   108 NGYF=  108 NGZF=  360
   ions per type =               2   1   1   6
   NGX,Y,Z   is equivalent  to a cutoff of  13.00, 13.00, 12.76 a.u.
   NGXF,Y,Z  is equivalent  to a cutoff of  25.99, 25.99, 25.53 a.u.

 SYSTEM =  unknown system                          
 POSCAR =  Cr2 Ge Si Se6                           

 Startparameter for this run:
   NWRITE =      2    write-flag & timer
   PREC   = accura    normal or accurate (medium, high low for compatibility)
   ISTART =      0    job   : 0-new  1-cont  2-samecut
   ICHARG =      2    charge: 1-file 2-atom 10-const
   ISPIN  =      2    spin polarized calculation?
   LNONCOLLINEAR =      F non collinear calculations
   LSORBIT =      F    spin-orbit coupling
   INIWAV =      1    electr: 0-lowe 1-rand  2-diag
   LASPH  =      F    aspherical Exc in radial PAW
   METAGGA=      F    non-selfconsistent MetaGGA calc.

 Electronic Relaxation 1
   ENCUT  =  520.0 eV  38.22 Ry    6.18 a.u.  12.84 12.84 43.59*2*pi/ulx,y,z
   ENINI  =  520.0     initial cutoff
   ENAUG  =  446.8 eV  augmentation charge cutoff
   NELM   =    400;   NELMIN=  2; NELMDL=  0     # of ELM steps 
   EDIFF  = 0.1E-03   stopping-criterion for ELM
   LREAL  =      T    real-space projection
   NLSPLINE    = F    spline interpolate recip. space projectors
   LCOMPAT=      F    compatible to vasp.4.4
   GGA_COMPAT  = T    GGA compatible to vasp.4.4-vasp.4.6
   LMAXPAW     = -100 max onsite density
   LMAXMIX     =    2 max onsite mixed and CHGCAR
   VOSKOWN=      0    Vosko Wilk Nusair interpolation
   ROPT   =   -0.00025  -0.00025  -0.00025  -0.00025
 Ionic relaxation
   EDIFFG = 0.1E-02   stopping-criterion for IOM
   NSW    =     99    number of steps for IOM
   NBLOCK =      1;   KBLOCK =     99    inner block; outer block 
   IBRION =      2    ionic relax: 0-MD 1-quasi-New 2-CG
   NFREE  =      1    steps in history (QN), initial steepest desc. (CG)
   ISIF   =      3    stress and relaxation
   IWAVPR =     11    prediction:  0-non 1-charg 2-wave 3-comb
   ISYM   =      2    0-nonsym 1-usesym 2-fastsym
   LCORR  =      T    Harris-Foulkes like correction to forces

   POTIM  = 0.5000    time-step for ionic-motion
   TEIN   =    0.0    initial temperature
   TEBEG  =    0.0;   TEEND  =   0.0 temperature during run
   SMASS  =  -3.00    Nose mass-parameter (am)
   estimated Nose-frequenzy (Omega)   =  0.10E-29 period in steps =****** mass=  -0.109E-26a.u.
   SCALEE = 1.0000    scale energy and forces
   NPACO  =    256;   APACO  = 16.0  distance and # of slots for P.C.
   PSTRESS=    0.0 pullay stress

  Mass of Ions in am
   POMASS =  52.00 72.61 28.09 78.96
  Ionic Valenz
   ZVAL   =   6.00  4.00  4.00  6.00
  Atomic Wigner-Seitz radii
   RWIGS  =  -1.00 -1.00 -1.00 -1.00
  virtual crystal weights 
   VCA    =   1.00  1.00  1.00  1.00
   NELECT =      56.0000    total number of electrons
   NUPDOWN=      -1.0000    fix difference up-down

 DOS related values:
   EMIN   =  10.00;   EMAX   =-10.00  energy-range for DOS
   EFERMI =   0.00
   ISMEAR =    -5;   SIGMA  =   0.05  broadening in eV -4-tet -1-fermi 0-gaus

 Electronic relaxation 2 (details)
   IALGO  =     38    algorithm
   LDIAG  =      T    sub-space diagonalisation (order eigenvalues)
   LSUBROT=      F    optimize rotation matrix (better conditioning)
   TURBO    =      0    0=normal 1=particle mesh
   IRESTART =      0    0=no restart 2=restart with 2 vectors
   NREBOOT  =      0    no. of reboots
   NMIN     =      0    reboot dimension
   EREF     =   0.00    reference energy to select bands
   IMIX   =      4    mixing-type and parameters
     AMIX     =   0.40;   BMIX     =  1.00
     AMIX_MAG =   1.60;   BMIX_MAG =  1.00
     AMIN     =   0.01
     WC   =   100.;   INIMIX=   1;  MIXPRE=   1;  MAXMIX= -45

 Intra band minimization:
   WEIMIN = 0.0010     energy-eigenvalue tresh-hold
   EBREAK =  0.63E-06  absolut break condition
   DEPER  =   0.30     relativ break condition  

   TIME   =   0.40     timestep for ELM

  volume/ion in A,a.u.               =      96.88       653.80
  Fermi-wavevector in a.u.,A,eV,Ry     =   0.632976  1.196152  5.451299  0.400659
  Thomas-Fermi vector in A             =   1.696476

 Write flags
   LWAVE        =      F    write WAVECAR
   LDOWNSAMPLE  =      F    k-point downsampling of WAVECAR
   LCHARG       =      T    write CHGCAR
   LVTOT        =      F    write LOCPOT, total local potential
   LVHAR        =      F    write LOCPOT, Hartree potential only
   LELF         =      F    write electronic localiz. function (ELF)
   LORBIT       =     11    0 simple, 1 ext, 2 COOP (PROOUT), +10 PAW based schemes


 Dipole corrections
   LMONO  =      F    monopole corrections only (constant potential shift)
   LDIPOL =      F    correct potential (dipole corrections)
   IDIPOL =      0    1-x, 2-y, 3-z, 4-all directions 
   EPSILON=  1.0000000 bulk dielectric constant

 Exchange correlation treatment:
   GGA     =    BO    GGA type
   LEXCH   =    42    internal setting for exchange type
   VOSKOWN=      0    Vosko Wilk Nusair interpolation
   LHFCALC =     F    Hartree Fock is set to
   LHFONE  =     F    Hartree Fock one center treatment
   AEXX    =    0.0000 exact exchange contribution

 vdW DFT:
   LUSE_VDW   =     T    switch on vdW DFT
   Zab_VDW    =-.8491    correlation parameter
   PARAM1     =0.1833
   PARAM2     =0.2200
   PARAM3     =0.0000
   -- rVV10 --
   BPARAM     = 6.3000
   CPARAM     = 0.0093

 Linear response parameters
   LEPSILON=     F    determine dielectric tensor
   LRPA    =     F    only Hartree local field effects (RPA)
   LNABLA  =     F    use nabla operator in PAW spheres
   LVEL    =     F    velocity operator in full k-point grid
   LINTERFAST=   F  fast interpolation
   KINTER  =     0    interpolate to denser k-point grid
   CSHIFT  =0.1000    complex shift for real part using Kramers Kronig
   OMEGAMAX=  -1.0    maximum frequency
   DEG_THRESHOLD= 0.2000000E-02 threshold for treating states as degnerate
   RTIME   =   -0.100 relaxation time in fs
  (WPLASMAI=    0.000 imaginary part of plasma frequency in eV, 0.658/RTIME)
   DFIELD  = 0.0000000 0.0000000 0.0000000 field for delta impulse in time

 Orbital magnetization related:
   ORBITALMAG=     F  switch on orbital magnetization
   LCHIMAG   =     F  perturbation theory with respect to B field
   DQ        =  0.001000  dq finite difference perturbation B field
   LLRAUG    =     F  two centre corrections for induced B field



--------------------------------------------------------------------------------------------------------


 conjugate gradient relaxation of ions
   using selective dynamics as specified on POSCAR
 charge density and potential will be updated during run
 spin polarized calculation
 Variant of blocked Davidson
 Davidson routine will perform the subspace rotation
 perform sub-space diagonalisation
    after iterative eigenvector-optimisation
 modified Broyden-mixing scheme, WC =      100.0
 initial mixing is a Kerker type mixing with AMIX =  0.4000 and BMIX =      1.0000
 Hartree-type preconditioning will be used
 using additional bands           12
 real space projection scheme for non local part
 use partial core corrections
 calculate Harris-corrections to forces   (improved forces if not selfconsistent)
 use gradient corrections 
 use of overlap-Matrix (Vanderbilt PP)
 Fermi weights with tetrahedron method with Bloechl corrections


--------------------------------------------------------------------------------------------------------


  energy-cutoff  :      520.00
  volume of cell :      968.84
      direct lattice vectors                 reciprocal lattice vectors
     6.907777000 -0.000000000  0.000000000     0.144764372 -0.083579742  0.000000000
     3.453888000  5.982310000  0.000000000     0.000000000  0.167159509 -0.000000000
     0.000000000  0.000000000 23.444588000    -0.000000000  0.000000000  0.042653767

  length of vectors
     6.907777000  6.907776433 23.444588000     0.167159495  0.167159509  0.042653767



 k-points in units of 2pi/SCALE and weight: Kpoints from vasprun.xml                
   0.00000000  0.00000000  0.00000000       0.040
   0.02895287 -0.01671595  0.00000000       0.240
   0.05790575 -0.03343190  0.00000000       0.240
   0.05790575  0.00000000  0.00000000       0.240
  -0.05790575  0.06686380  0.00000000       0.240

 k-points in reciprocal lattice and weights: Kpoints from vasprun.xml                
   0.00000000  0.00000000  0.00000000       0.040
   0.20000000  0.00000000  0.00000000       0.240
   0.40000000  0.00000000  0.00000000       0.240
   0.40000000  0.20000000  0.00000000       0.240
  -0.40000000  0.20000000  0.00000000       0.240

 position of ions in fractional coordinates (direct lattice) 
   0.33333300  0.33333300  0.49992500
   0.66666700  0.66666700  0.50007500
   0.00000000  0.00000000  0.44821600
   0.00000000  0.00000000  0.55178400
   0.62635700  0.00042000  0.57375200
   0.00042000  0.37322400  0.57375200
   0.37322400  0.62635700  0.57375200
   0.37364300  0.99958000  0.42624800
   0.99958000  0.62677600  0.42624800
   0.62677600  0.37364300  0.42624800

 position of ions in cartesian coordinates  (Angst):
   3.45388488  1.99410134 11.72053566
   6.90778012  3.98820866 11.72405234
   0.00000000  0.00000000 10.50823946
   0.00000000  0.00000000 12.93634854
   4.32818511  0.00251257 13.45137925
   1.29197516  2.23274167 13.45137925
   4.74151509  3.74706174 13.45137925
   6.03347989  5.97979743  9.99320875
   9.06968984  3.74956833  9.99320875
   5.62014991  2.23524826  9.99320875



--------------------------------------------------------------------------------------------------------


 k-point  1 :   0.0000 0.0000 0.0000  plane waves:   26073
 k-point  2 :   0.2000 0.0000 0.0000  plane waves:   26070
 k-point  3 :   0.4000 0.0000 0.0000  plane waves:   26086
 k-point  4 :   0.4000 0.2000 0.0000  plane waves:   26085
 k-point  5 :  -0.4000 0.2000 0.0000  plane waves:   26115

 maximum and minimum number of plane-waves per node :     26115    26070

 maximum number of plane-waves:     26115
 maximum index in each direction: 
   IXMAX=   13   IYMAX=   12   IZMAX=   43
   IXMIN=  -13   IYMIN=  -13   IZMIN=  -43


 serial   3D FFT for wavefunctions
 parallel 3D FFT for charge:
    minimum data exchange during FFTs selected (reduces bandwidth)


 total amount of memory used by VASP MPI-rank0   173497. kBytes
=======================================================================

   base      :      30000. kBytes
   nonlr-proj:       7318. kBytes
   fftplans  :      20284. kBytes
   grid      :      94580. kBytes
   one-center:        311. kBytes
   wavefun   :      21004. kBytes

     INWAV:  cpu time    0.0000: real time    0.0001
 Broyden mixing: mesh for mixing (old mesh)
   NGX = 25   NGY = 25   NGZ = 87
  (NGX  =108   NGY  =108   NGZ  =360)
  gives a total of  54375 points

 initial charge density was supplied:
 charge density of overlapping atoms calculated
 number of electron      56.0000000 magnetization       6.0000000
 keeping initial charge density in first step


--------------------------------------------------------------------------------------------------------


 Maximum index for non-local projection operator         7247
 Maximum index for augmentation-charges         4076 (set IRDMAX)


--------------------------------------------------------------------------------------------------------


 First call to EWALD:  gamma=   0.179
 Maximum number of real-space cells 4x 4x 1
 Maximum number of reciprocal cells 2x 2x 6

    FEWALD:  cpu time    0.0040: real time    0.0010


--------------------------------------- Iteration      1(   1)  ---------------------------------------


vdW kernel read from vdw_kernel.bindat
  0.0000  0.2424  0.5071  0.7962  1.1119  1.4567  1.8333  2.2446  2.6937  3.1842
  3.7199  4.3049  4.9438  5.6415  6.4036  7.2358  8.1446  9.1372 10.2212 11.4050
 12.6979 14.1099 15.6519 17.3360 19.1751 21.1837 23.3773 25.7729 28.3892 31.2465
 34.3669 37.7748 41.4965 45.5611 50.0000

    POTLOK:  cpu time   69.5560: real time   69.6385
    SETDIJ:  cpu time    0.0440: real time    0.0463
     EDDAV:  cpu time   18.1920: real time   18.3164
 BZINTS: Fermi energy:  6.037926; 56.000000 electrons
         Band energy:  12.315051;  BLOECHL correction: -0.066134
       DOS:  cpu time    0.0080: real time    0.0049
    --------------------------------------------
      LOOP:  cpu time   87.8000: real time   88.0062

 eigenvalue-minimisations  :   800
 total energy-change (2. order) : 0.4255019E+03  (-0.1579819E+04)
 number of electron      56.0000000 magnetization       6.0000000
 augmentation part       56.0000000 magnetization       6.0000000

 Free energy of the ion-electron system (eV)
  ---------------------------------------------------
  alpha Z        PSCENC =        31.35304452
  Ewald energy   TEWEN  =      5985.89955237
  -Hartree energ DENC   =     -8013.91704679
  -exchange      EXHF   =         0.00000000
  -V(xc)+E(xc)   XCENC  =       -68.41508622
  PAW double counting   =      1162.27512727     -999.79281180
  entropy T*S    EENTRO =         0.00000000
  eigenvalues    EBANDS =        12.31505079
  atomic energy  EATOM  =      2315.78410452
  Solvation  Ediel_sol  =         0.00000000
  ---------------------------------------------------
  free energy    TOTEN  =       425.50193465 eV

  energy without entropy =      425.50193465  energy(sigma->0) =      425.50193465


--------------------------------------------------------------------------------------------------------




--------------------------------------- Iteration      1(   2)  ---------------------------------------


     EDDAV:  cpu time   30.5600: real time   30.7033
 BZINTS: Fermi energy: -0.464918; 56.000000 electrons
         Band energy:-373.012875;  BLOECHL correction: -0.084207
       DOS:  cpu time    0.0040: real time    0.0034
    --------------------------------------------
      LOOP:  cpu time   30.5640: real time   30.7067

 eigenvalue-minimisations  :  1080
 total energy-change (2. order) :-0.3853279E+03  (-0.3685743E+03)
 number of electron      56.0000000 magnetization       6.0000000
 augmentation part       56.0000000 magnetization       6.0000000

 Free energy of the ion-electron system (eV)
  ---------------------------------------------------
  alpha Z        PSCENC =        31.35304452
  Ewald energy   TEWEN  =      5985.89955237
  -Hartree energ DENC   =     -8013.91704679
  -exchange      EXHF   =         0.00000000
  -V(xc)+E(xc)   XCENC  =       -68.41508622
  PAW double counting   =      1162.27512727     -999.79281180
  entropy T*S    EENTRO =         0.00000000
  eigenvalues    EBANDS =      -373.01287482
  atomic energy  EATOM  =      2315.78410452
  Solvation  Ediel_sol  =         0.00000000
  ---------------------------------------------------
  free energy    TOTEN  =        40.17400904 eV

  energy without entropy =       40.17400904  energy(sigma->0) =       40.17400904


--------------------------------------------------------------------------------------------------------




--------------------------------------- Iteration      1(   3)  ---------------------------------------


     EDDAV:  cpu time   26.1880: real time   27.4492
 BZINTS: Fermi energy: -2.202319; 56.000000 electrons
         Band energy:-458.508717;  BLOECHL correction: -0.069062
       DOS:  cpu time    0.0040: real time    0.0040
    --------------------------------------------
      LOOP:  cpu time   26.1920: real time   27.4532

 eigenvalue-minimisations  :  1144
 total energy-change (2. order) :-0.8549584E+02  (-0.8342393E+02)
 number of electron      56.0000000 magnetization       6.0000000
 augmentation part       56.0000000 magnetization       6.0000000

 Free energy of the ion-electron system (eV)
  ---------------------------------------------------
  alpha Z        PSCENC =        31.35304452
  Ewald energy   TEWEN  =      5985.89955237
  -Hartree energ DENC   =     -8013.91704679
  -exchange      EXHF   =         0.00000000
  -V(xc)+E(xc)   XCENC  =       -68.41508622
  PAW double counting   =      1162.27512727     -999.79281180
  entropy T*S    EENTRO =         0.00000000
  eigenvalues    EBANDS =      -458.50871657
  atomic energy  EATOM  =      2315.78410452
  Solvation  Ediel_sol  =         0.00000000
  ---------------------------------------------------
  free energy    TOTEN  =       -45.32183271 eV

  energy without entropy =      -45.32183271  energy(sigma->0) =      -45.32183271


--------------------------------------------------------------------------------------------------------




--------------------------------------- Iteration      1(   4)  ---------------------------------------


     EDDAV:  cpu time   27.9240: real time   27.9937
 BZINTS: Fermi energy: -2.360405; 56.000000 electrons
         Band energy:-464.989477;  BLOECHL correction: -0.010504
       DOS:  cpu time    0.0040: real time    0.0039
    --------------------------------------------
      LOOP:  cpu time   27.9280: real time   27.9976

 eigenvalue-minimisations  :  1184
 total energy-change (2. order) :-0.6480760E+01  (-0.5812863E+01)
 number of electron      56.0000000 magnetization       6.0000000
 augmentation part       56.0000000 magnetization       6.0000000

 Free energy of the ion-electron system (eV)
  ---------------------------------------------------
  alpha Z        PSCENC =        31.35304452
  Ewald energy   TEWEN  =      5985.89955237
  -Hartree energ DENC   =     -8013.91704679
  -exchange      EXHF   =         0.00000000
  -V(xc)+E(xc)   XCENC  =       -68.41508622
  PAW double counting   =      1162.27512727     -999.79281180
  entropy T*S    EENTRO =         0.00000000
  eigenvalues    EBANDS =      -464.98947660
  atomic energy  EATOM  =      2315.78410452
  Solvation  Ediel_sol  =         0.00000000
  ---------------------------------------------------
  free energy    TOTEN  =       -51.80259274 eV

  energy without entropy =      -51.80259274  energy(sigma->0) =      -51.80259274


--------------------------------------------------------------------------------------------------------




--------------------------------------- Iteration      1(   5)  ---------------------------------------


     EDDAV:  cpu time   26.8960: real time   26.9591
 BZINTS: Fermi energy: -2.369667; 56.000000 electrons
         Band energy:-465.262514;  BLOECHL correction: -0.009193
       DOS:  cpu time    0.0040: real time    0.0042
    CHARGE:  cpu time    2.0440: real time    2.0430
    MIXING:  cpu time    0.0560: real time    0.0594
    --------------------------------------------
      LOOP:  cpu time   29.0000: real time   29.0656

 eigenvalue-minimisations  :  1112
 total energy-change (2. order) :-0.2730377E+00  (-0.2677622E+00)
 number of electron      55.9999997 magnetization       5.5802888
 augmentation part       -6.4876058 magnetization       5.0417998

 Broyden mixing:
  rms(total) = 0.25157E+01    rms(broyden)= 0.25157E+01
  rms(prec ) = 0.28190E+01
  weight for this iteration     100.00

 Free energy of the ion-electron system (eV)
  ---------------------------------------------------
  alpha Z        PSCENC =        31.35304452
  Ewald energy   TEWEN  =      5985.89955237
  -Hartree energ DENC   =     -8013.91704679
  -exchange      EXHF   =         0.00000000
  -V(xc)+E(xc)   XCENC  =       -68.41508622
  PAW double counting   =      1162.27512727     -999.79281180
  entropy T*S    EENTRO =         0.00000000
  eigenvalues    EBANDS =      -465.26251427
  atomic energy  EATOM  =      2315.78410452
  Solvation  Ediel_sol  =         0.00000000
  ---------------------------------------------------
  free energy    TOTEN  =       -52.07563041 eV

  energy without entropy =      -52.07563041  energy(sigma->0) =      -52.07563041


--------------------------------------------------------------------------------------------------------




--------------------------------------- Iteration      1(   6)  ---------------------------------------


    POTLOK:  cpu time  121.1920: real time  122.2068
    SETDIJ:  cpu time    0.0880: real time    0.0896
     EDDAV:  cpu time   43.4280: real time   43.6874
 BZINTS: Fermi energy: -4.969933; 56.000000 electrons
         Band energy:-603.689982;  BLOECHL correction: -0.044601
       DOS:  cpu time    0.0040: real time    0.0060
    CHARGE:  cpu time    2.7440: real time    2.7928
    MIXING:  cpu time    0.0680: real time    0.0675
    --------------------------------------------
      LOOP:  cpu time  167.5240: real time  168.8500

 eigenvalue-minimisations  :  1096
 total energy-change (2. order) :-0.8027487E+02  (-0.5468104E+02)
 number of electron      55.9999994 magnetization       5.4503415
 augmentation part        8.0335773 magnetization       4.1639792

 Broyden mixing:
  rms(total) = 0.62570E+01    rms(broyden)= 0.62569E+01
  rms(prec ) = 0.70568E+01
  weight for this iteration     100.00

 eigenvalues of (default mixing * dielectric matrix)
  average eigenvalue GAMMA=   0.2823
  0.2823

 Free energy of the ion-electron system (eV)
  ---------------------------------------------------
  alpha Z        PSCENC =        31.35304452
  Ewald energy   TEWEN  =      5985.89955237
  -Hartree energ DENC   =     -7964.84844363
  -exchange      EXHF   =         0.00000000
  -V(xc)+E(xc)   XCENC  =       -68.92781874
  PAW double counting   =      1094.28383506     -922.20478945
  entropy T*S    EENTRO =         0.00000000
  eigenvalues    EBANDS =      -603.68998204
  atomic energy  EATOM  =      2315.78410452
  Solvation  Ediel_sol  =         0.00000000
  ---------------------------------------------------
  free energy    TOTEN  =      -132.35049740 eV

  energy without entropy =     -132.35049740  energy(sigma->0) =     -132.35049740


--------------------------------------------------------------------------------------------------------




--------------------------------------- Iteration      1(   7)  ---------------------------------------


    POTLOK:  cpu time   97.2880: real time   99.0052
    SETDIJ:  cpu time    0.1080: real time    0.1076
     EDDAV:  cpu time   43.0400: real time   43.6213
 BZINTS: Fermi energy: -3.967341; 56.000000 electrons
         Band energy:-465.453751;  BLOECHL correction:  0.000000
       DOS:  cpu time    0.0040: real time    0.0017
    CHARGE:  cpu time    2.8040: real time    2.8179
    MIXING:  cpu time    0.0720: real time    0.0702
    --------------------------------------------
      LOOP:  cpu time  143.3160: real time  145.6238

 eigenvalue-minimisations  :  1064
 total energy-change (2. order) : 0.8938720E+02  (-0.1162385E+02)
 number of electron      55.9999995 magnetization       5.4713407
 augmentation part       -2.0058854 magnetization       3.0974710

 Broyden mixing:
  rms(total) = 0.18165E+01    rms(broyden)= 0.18164E+01
  rms(prec ) = 0.18278E+01
  weight for this iteration     100.00

 eigenvalues of (default mixing * dielectric matrix)
  average eigenvalue GAMMA=   0.2858
  0.2858  0.2858

 Free energy of the ion-electron system (eV)
  ---------------------------------------------------
  alpha Z        PSCENC =        31.35304452
  Ewald energy   TEWEN  =      5985.89955237
  -Hartree energ DENC   =     -8003.66540182
  -exchange      EXHF   =         0.00000000
  -V(xc)+E(xc)   XCENC  =       -69.22457910
  PAW double counting   =      1166.61669249    -1004.27296169
  entropy T*S    EENTRO =         0.00000000
  eigenvalues    EBANDS =      -465.45375094
  atomic energy  EATOM  =      2315.78410452
  Solvation  Ediel_sol  =         0.00000000
  ---------------------------------------------------
  free energy    TOTEN  =       -42.96329966 eV

  energy without entropy =      -42.96329966  energy(sigma->0) =      -42.96329966


--------------------------------------------------------------------------------------------------------




--------------------------------------- Iteration      1(   8)  ---------------------------------------


    POTLOK:  cpu time   97.4560: real time   98.2187
    SETDIJ:  cpu time    0.1160: real time    0.1153
     EDDAV:  cpu time   39.4320: real time   40.0653
 BZINTS: Fermi energy: -4.158371; 56.000000 electrons
         Band energy:-467.950846;  BLOECHL correction:  0.000000
       DOS:  cpu time    0.0000: real time    0.0017
    CHARGE:  cpu time    2.8280: real time    2.8968
    MIXING:  cpu time    0.0520: real time    0.0547
    --------------------------------------------
      LOOP:  cpu time  139.8840: real time  141.3526

 eigenvalue-minimisations  :   936
 total energy-change (2. order) :-0.2184078E+01  (-0.8071125E+00)
 number of electron      55.9999995 magnetization       5.5137810
 augmentation part       -2.2125129 magnetization       3.3196467

 Broyden mixing:
  rms(total) = 0.11511E+01    rms(broyden)= 0.11511E+01
  rms(prec ) = 0.11632E+01
  weight for this iteration     100.00

 eigenvalues of (default mixing * dielectric matrix)
  average eigenvalue GAMMA=   0.4878
  0.5900  0.5900  0.2835

 Free energy of the ion-electron system (eV)
  ---------------------------------------------------
  alpha Z        PSCENC =        31.35304452
  Ewald energy   TEWEN  =      5985.89955237
  -Hartree energ DENC   =     -8003.95091944
  -exchange      EXHF   =         0.00000000
  -V(xc)+E(xc)   XCENC  =       -68.71369744
  PAW double counting   =      1168.46749664    -1006.03611317
  entropy T*S    EENTRO =         0.00000000
  eigenvalues    EBANDS =      -467.95084608
  atomic energy  EATOM  =      2315.78410452
  Solvation  Ediel_sol  =         0.00000000
  ---------------------------------------------------
  free energy    TOTEN  =       -45.14737808 eV

  energy without entropy =      -45.14737808  energy(sigma->0) =      -45.14737808


--------------------------------------------------------------------------------------------------------




--------------------------------------- Iteration      1(   9)  ---------------------------------------


    POTLOK:  cpu time   98.0160: real time   98.3819
    SETDIJ:  cpu time    0.1120: real time    0.1163
     EDDAV:  cpu time   49.0880: real time   49.7377
 BZINTS: Fermi energy: -4.183132; 56.000000 electrons
         Band energy:-465.045106;  BLOECHL correction:  0.000000
       DOS:  cpu time    0.0040: real time    0.0022
    CHARGE:  cpu time    1.9720: real time    1.9883
    MIXING:  cpu time    0.0520: real time    0.0543
    --------------------------------------------
      LOOP:  cpu time  149.2440: real time  150.2807

 eigenvalue-minimisations  :  1264
 total energy-change (2. order) :-0.7146498E+00  (-0.6537896E-01)
 number of electron      55.9999995 magnetization       5.5853779
 augmentation part       -2.3035859 magnetization       3.7164344

 Broyden mixing:
  rms(total) = 0.73349E+00    rms(broyden)= 0.73349E+00
  rms(prec ) = 0.73975E+00
  weight for this iteration     100.00

 eigenvalues of (default mixing * dielectric matrix)
  average eigenvalue GAMMA=   0.6777
  0.9565  0.9565  0.2840  0.5138

 Free energy of the ion-electron system (eV)
  ---------------------------------------------------
  alpha Z        PSCENC =        31.35304452
  Ewald energy   TEWEN  =      5985.89955237
  -Hartree energ DENC   =     -8008.59326040
  -exchange      EXHF   =         0.00000000
  -V(xc)+E(xc)   XCENC  =       -67.49871352
  PAW double counting   =      1180.04228037    -1017.80393008
  entropy T*S    EENTRO =         0.00000000
  eigenvalues    EBANDS =      -465.04510562
  atomic energy  EATOM  =      2315.78410452
  Solvation  Ediel_sol  =         0.00000000
  ---------------------------------------------------
  free energy    TOTEN  =       -45.86202784 eV

  energy without entropy =      -45.86202784  energy(sigma->0) =      -45.86202784


--------------------------------------------------------------------------------------------------------




--------------------------------------- Iteration      1(  10)  ---------------------------------------


    POTLOK:  cpu time   98.3440: real time   98.6952
    SETDIJ:  cpu time    0.0840: real time    0.0819
     EDDAV:  cpu time   47.8960: real time   48.6610
 BZINTS: Fermi energy: -4.144372; 56.000000 electrons
         Band energy:-463.089522;  BLOECHL correction:  0.000000
       DOS:  cpu time    0.0000: real time    0.0026
    CHARGE:  cpu time    2.0800: real time    2.0804
    MIXING:  cpu time    0.0520: real time    0.0514
    --------------------------------------------
      LOOP:  cpu time  148.4560: real time  149.5725

 eigenvalue-minimisations  :  1240
 total energy-change (2. order) :-0.2689825E+00  (-0.2963679E-01)
 number of electron      55.9999995 magnetization       5.6532835
 augmentation part       -2.2855927 magnetization       4.0885286

 Broyden mixing:
  rms(total) = 0.28289E+00    rms(broyden)= 0.28289E+00
  rms(prec ) = 0.28752E+00
  weight for this iteration     100.00

 eigenvalues of (default mixing * dielectric matrix)
  average eigenvalue GAMMA=   0.8471
  1.3204  1.3204  0.2836  0.6555  0.6555

 Free energy of the ion-electron system (eV)
  ---------------------------------------------------
  alpha Z        PSCENC =        31.35304452
  Ewald energy   TEWEN  =      5985.89955237
  -Hartree energ DENC   =     -8012.05711565
  -exchange      EXHF   =         0.00000000
  -V(xc)+E(xc)   XCENC  =       -65.74083972
  PAW double counting   =      1186.53855525    -1024.81878961
  entropy T*S    EENTRO =         0.00000000
  eigenvalues    EBANDS =      -463.08952207
  atomic energy  EATOM  =      2315.78410452
  Solvation  Ediel_sol  =         0.00000000
  ---------------------------------------------------
  free energy    TOTEN  =       -46.13101038 eV

  energy without entropy =      -46.13101038  energy(sigma->0) =      -46.13101038


--------------------------------------------------------------------------------------------------------




--------------------------------------- Iteration      1(  11)  ---------------------------------------


    POTLOK:  cpu time   98.0640: real time   99.0072
    SETDIJ:  cpu time    0.0920: real time    0.0936
     EDDAV:  cpu time   47.5320: real time   48.4308
 BZINTS: Fermi energy: -4.090614; 56.000000 electrons
         Band energy:-462.468964;  BLOECHL correction:  0.000000
       DOS:  cpu time    0.0040: real time    0.0017
    CHARGE:  cpu time    1.9720: real time    1.9775
    MIXING:  cpu time    0.0560: real time    0.0564
    --------------------------------------------
      LOOP:  cpu time  147.7200: real time  149.5672

 eigenvalue-minimisations  :  1248
 total energy-change (2. order) :-0.7348343E-01  (-0.1008441E-01)
 number of electron      55.9999995 magnetization       5.7156116
 augmentation part       -2.3440699 magnetization       4.2926831

 Broyden mixing:
  rms(total) = 0.81415E-01    rms(broyden)= 0.81413E-01
  rms(prec ) = 0.83763E-01
  weight for this iteration     100.00

 eigenvalues of (default mixing * dielectric matrix)
  average eigenvalue GAMMA=   0.9513
  1.5848  1.5848  0.2836  0.8921  0.6813  0.6813

 Free energy of the ion-electron system (eV)
  ---------------------------------------------------
  alpha Z        PSCENC =        31.35304452
  Ewald energy   TEWEN  =      5985.89955237
  -Hartree energ DENC   =     -8013.64398959
  -exchange      EXHF   =         0.00000000
  -V(xc)+E(xc)   XCENC  =       -64.61609389
  PAW double counting   =      1189.32687903    -1027.83902714
  entropy T*S    EENTRO =         0.00000000
  eigenvalues    EBANDS =      -462.46896363
  atomic energy  EATOM  =      2315.78410452
  Solvation  Ediel_sol  =         0.00000000
  ---------------------------------------------------
  free energy    TOTEN  =       -46.20449381 eV

  energy without entropy =      -46.20449381  energy(sigma->0) =      -46.20449381


--------------------------------------------------------------------------------------------------------




--------------------------------------- Iteration      1(  12)  ---------------------------------------


    POTLOK:  cpu time   97.7720: real time   98.2622
    SETDIJ:  cpu time    0.1120: real time    0.1092
     EDDAV:  cpu time   46.1520: real time   46.8509
 BZINTS: Fermi energy: -4.092444; 56.000000 electrons
         Band energy:-462.190003;  BLOECHL correction:  0.000000
       DOS:  cpu time    0.0040: real time    0.0028
    CHARGE:  cpu time    3.1800: real time    3.1874
    MIXING:  cpu time    0.0560: real time    0.0562
    --------------------------------------------
      LOOP:  cpu time  147.2760: real time  148.4687

 eigenvalue-minimisations  :  1184
 total energy-change (2. order) :-0.2358570E-02  (-0.2193207E-02)
 number of electron      55.9999995 magnetization       5.7408995
 augmentation part       -2.3809078 magnetization       4.3222722

 Broyden mixing:
  rms(total) = 0.45165E-01    rms(broyden)= 0.45165E-01
  rms(prec ) = 0.48136E-01
  weight for this iteration     100.00

 eigenvalues of (default mixing * dielectric matrix)
  average eigenvalue GAMMA=   0.9274
  1.9898  1.2249  1.2249  0.2836  0.6613  0.6613  0.4457

 Free energy of the ion-electron system (eV)
  ---------------------------------------------------
  alpha Z        PSCENC =        31.35304452
  Ewald energy   TEWEN  =      5985.89955237
  -Hartree energ DENC   =     -8013.98374832
  -exchange      EXHF   =         0.00000000
  -V(xc)+E(xc)   XCENC  =       -64.37269169
  PAW double counting   =      1188.84327975    -1027.54039020
  entropy T*S    EENTRO =         0.00000000
  eigenvalues    EBANDS =      -462.19000332
  atomic energy  EATOM  =      2315.78410452
  Solvation  Ediel_sol  =         0.00000000
  ---------------------------------------------------
  free energy    TOTEN  =       -46.20685238 eV

  energy without entropy =      -46.20685238  energy(sigma->0) =      -46.20685238


--------------------------------------------------------------------------------------------------------




--------------------------------------- Iteration      1(  13)  ---------------------------------------


    POTLOK:  cpu time   97.8080: real time   98.4429
    SETDIJ:  cpu time    0.0840: real time    0.0833
     EDDAV:  cpu time   48.4800: real time   49.1550
 BZINTS: Fermi energy: -4.090197; 56.000000 electrons
         Band energy:-462.024005;  BLOECHL correction:  0.000000
       DOS:  cpu time    0.0000: real time    0.0025
    CHARGE:  cpu time    2.6680: real time    2.7690
    MIXING:  cpu time    0.0680: real time    0.0659
    --------------------------------------------
      LOOP:  cpu time  149.1080: real time  150.5185

 eigenvalue-minimisations  :  1248
 total energy-change (2. order) :-0.5599355E-03  (-0.5871792E-03)
 number of electron      55.9999995 magnetization       5.7856332
 augmentation part       -2.3848344 magnetization       4.3676362

 Broyden mixing:
  rms(total) = 0.29480E-01    rms(broyden)= 0.29480E-01
  rms(prec ) = 0.31038E-01
  weight for this iteration     100.00

 eigenvalues of (default mixing * dielectric matrix)
  average eigenvalue GAMMA=   1.0004
  2.5497  1.3675  1.3675  0.7371  0.7371  0.6099  0.2836  0.3506

 Free energy of the ion-electron system (eV)
  ---------------------------------------------------
  alpha Z        PSCENC =        31.35304452
  Ewald energy   TEWEN  =      5985.89955237
  -Hartree energ DENC   =     -8014.16461771
  -exchange      EXHF   =         0.00000000
  -V(xc)+E(xc)   XCENC  =       -64.34544327
  PAW double counting   =      1188.89490198    -1027.60494974
  entropy T*S    EENTRO =         0.00000000
  eigenvalues    EBANDS =      -462.02400499
  atomic energy  EATOM  =      2315.78410452
  Solvation  Ediel_sol  =         0.00000000
  ---------------------------------------------------
  free energy    TOTEN  =       -46.20741231 eV

  energy without entropy =      -46.20741231  energy(sigma->0) =      -46.20741231


--------------------------------------------------------------------------------------------------------




--------------------------------------- Iteration      1(  14)  ---------------------------------------


    POTLOK:  cpu time   97.2520: real time   98.4690
    SETDIJ:  cpu time    0.1080: real time    0.1073
     EDDAV:  cpu time   44.0080: real time   45.2268
 BZINTS: Fermi energy: -4.081574; 56.000000 electrons
         Band energy:-461.698897;  BLOECHL correction:  0.000000
       DOS:  cpu time    0.0040: real time    0.0033
    CHARGE:  cpu time    3.2800: real time    3.3116
    MIXING:  cpu time    0.0640: real time    0.0670
    --------------------------------------------
      LOOP:  cpu time  144.7160: real time  147.1850

 eigenvalue-minimisations  :  1136
 total energy-change (2. order) :-0.7575909E-04  (-0.2751366E-03)
 number of electron      55.9999995 magnetization       5.8160351
 augmentation part       -2.3788749 magnetization       4.4010816

 Broyden mixing:
  rms(total) = 0.26302E-01    rms(broyden)= 0.26302E-01
  rms(prec ) = 0.26812E-01
  weight for this iteration     100.00

 eigenvalues of (default mixing * dielectric matrix)
  average eigenvalue GAMMA=   1.0241
  2.1664  2.1664  1.1228  1.1228  0.2836  0.7059  0.7059  0.5963  0.3469

 Free energy of the ion-electron system (eV)
  ---------------------------------------------------
  alpha Z        PSCENC =        31.35304452
  Ewald energy   TEWEN  =      5985.89955237
  -Hartree energ DENC   =     -8014.50274007
  -exchange      EXHF   =         0.00000000
  -V(xc)+E(xc)   XCENC  =       -64.35236487
  PAW double counting   =      1188.98079728    -1027.67098477
  entropy T*S    EENTRO =         0.00000000
  eigenvalues    EBANDS =      -461.69889704
  atomic energy  EATOM  =      2315.78410452
  Solvation  Ediel_sol  =         0.00000000
  ---------------------------------------------------
  free energy    TOTEN  =       -46.20748807 eV

  energy without entropy =      -46.20748807  energy(sigma->0) =      -46.20748807


--------------------------------------------------------------------------------------------------------




--------------------------------------- Iteration      1(  15)  ---------------------------------------


    POTLOK:  cpu time   98.2160: real time   98.8839
    SETDIJ:  cpu time    0.1120: real time    0.1121
     EDDAV:  cpu time   41.3200: real time   41.7158
 BZINTS: Fermi energy: -4.073387; 56.000000 electrons
         Band energy:-461.443430;  BLOECHL correction:  0.000000
       DOS:  cpu time    0.0000: real time    0.0019
    CHARGE:  cpu time    2.3520: real time    2.3668
    MIXING:  cpu time    0.0880: real time    0.0868
    --------------------------------------------
      LOOP:  cpu time  142.0880: real time  143.1674

 eigenvalue-minimisations  :  1016
 total energy-change (2. order) :-0.4123093E-02  (-0.1324477E-03)
 number of electron      55.9999995 magnetization       5.8668210
 augmentation part       -2.3657310 magnetization       4.4527713

 Broyden mixing:
  rms(total) = 0.32627E-01    rms(broyden)= 0.32627E-01
  rms(prec ) = 0.33204E-01
  weight for this iteration     100.00

 eigenvalues of (default mixing * dielectric matrix)
  average eigenvalue GAMMA=   1.1151
  2.5722  2.5722  1.2998  1.2998  0.7770  0.7770  0.2836  0.6118  0.6118  0.3456

 Free energy of the ion-electron system (eV)
  ---------------------------------------------------
  alpha Z        PSCENC =        31.35304452
  Ewald energy   TEWEN  =      5985.89955237
  -Hartree energ DENC   =     -8014.73419221
  -exchange      EXHF   =         0.00000000
  -V(xc)+E(xc)   XCENC  =       -64.38777385
  PAW double counting   =      1188.65057210    -1027.33348814
  entropy T*S    EENTRO =         0.00000000
  eigenvalues    EBANDS =      -461.44343046
  atomic energy  EATOM  =      2315.78410452
  Solvation  Ediel_sol  =         0.00000000
  ---------------------------------------------------
  free energy    TOTEN  =       -46.21161117 eV

  energy without entropy =      -46.21161117  energy(sigma->0) =      -46.21161117


--------------------------------------------------------------------------------------------------------




--------------------------------------- Iteration      1(  16)  ---------------------------------------


    POTLOK:  cpu time   98.3080: real time   98.7540
    SETDIJ:  cpu time    0.0800: real time    0.0798
     EDDAV:  cpu time   37.5520: real time   38.1732
 BZINTS: Fermi energy: -4.062965; 56.000000 electrons
         Band energy:-460.912655;  BLOECHL correction:  0.000000
       DOS:  cpu time    0.0000: real time    0.0024
    CHARGE:  cpu time    3.0440: real time    3.0660
    MIXING:  cpu time    0.1080: real time    0.1079
    --------------------------------------------
      LOOP:  cpu time  139.0920: real time  140.1833

 eigenvalue-minimisations  :   888
 total energy-change (2. order) : 0.1315049E-02  (-0.1150619E-03)
 number of electron      55.9999995 magnetization       5.9350499
 augmentation part       -2.3581307 magnetization       4.5320538

 Broyden mixing:
  rms(total) = 0.22414E-01    rms(broyden)= 0.22414E-01
  rms(prec ) = 0.23393E-01
  weight for this iteration     100.00

 eigenvalues of (default mixing * dielectric matrix)
  average eigenvalue GAMMA=   1.2537
  3.2678  3.2678  1.4401  1.4401  0.8876  0.8876  0.2836  0.6813  0.6813  0.6084
  0.3451

 Free energy of the ion-electron system (eV)
  ---------------------------------------------------
  alpha Z        PSCENC =        31.35304452
  Ewald energy   TEWEN  =      5985.89955237
  -Hartree energ DENC   =     -8015.33138830
  -exchange      EXHF   =         0.00000000
  -V(xc)+E(xc)   XCENC  =       -64.32448863
  PAW double counting   =      1188.65635778    -1027.33482331
  entropy T*S    EENTRO =         0.00000000
  eigenvalues    EBANDS =      -460.91265507
  atomic energy  EATOM  =      2315.78410452
  Solvation  Ediel_sol  =         0.00000000
  ---------------------------------------------------
  free energy    TOTEN  =       -46.21029612 eV

  energy without entropy =      -46.21029612  energy(sigma->0) =      -46.21029612


--------------------------------------------------------------------------------------------------------




--------------------------------------- Iteration      1(  17)  ---------------------------------------


    POTLOK:  cpu time   98.5760: real time   99.2527
    SETDIJ:  cpu time    0.0960: real time    0.0987
     EDDAV:  cpu time   40.8280: real time   41.0640
 BZINTS: Fermi energy: -4.048921; 56.000000 electrons
         Band energy:-460.195481;  BLOECHL correction:  0.000000
       DOS:  cpu time    0.0040: real time    0.0017
    CHARGE:  cpu time    3.0440: real time    3.0884
    MIXING:  cpu time    0.1400: real time    0.1397
    --------------------------------------------
      LOOP:  cpu time  142.6880: real time  143.6451

 eigenvalue-minimisations  :   992
 total energy-change (2. order) : 0.7150578E-02  (-0.7426185E-04)
 number of electron      55.9999995 magnetization       5.9698995
 augmentation part       -2.3645958 magnetization       4.5688504

 Broyden mixing:
  rms(total) = 0.85319E-02    rms(broyden)= 0.85319E-02
  rms(prec ) = 0.93772E-02
  weight for this iteration     100.00

 eigenvalues of (default mixing * dielectric matrix)
  average eigenvalue GAMMA=   1.3644
  5.3561  2.6537  1.4987  1.4987  0.9975  0.9975  0.2836  0.7402  0.7402  0.6436
  0.6174  0.3451

 Free energy of the ion-electron system (eV)
  ---------------------------------------------------
  alpha Z        PSCENC =        31.35304452
  Ewald energy   TEWEN  =      5985.89955237
  -Hartree energ DENC   =     -8016.10142803
  -exchange      EXHF   =         0.00000000
  -V(xc)+E(xc)   XCENC  =       -64.24792400
  PAW double counting   =      1188.67150855    -1027.36652258
  entropy T*S    EENTRO =         0.00000000
  eigenvalues    EBANDS =      -460.19548087
  atomic energy  EATOM  =      2315.78410452
  Solvation  Ediel_sol  =         0.00000000
  ---------------------------------------------------
  free energy    TOTEN  =       -46.20314554 eV

  energy without entropy =      -46.20314554  energy(sigma->0) =      -46.20314554


--------------------------------------------------------------------------------------------------------




--------------------------------------- Iteration      1(  18)  ---------------------------------------


    POTLOK:  cpu time   98.7840: real time   99.2138
    SETDIJ:  cpu time    0.0920: real time    0.0933
     EDDAV:  cpu time   33.8720: real time   34.2292
 BZINTS: Fermi energy: -4.075393; 56.000000 electrons
         Band energy:-459.815785;  BLOECHL correction:  0.000000
       DOS:  cpu time    0.0040: real time    0.0027
    CHARGE:  cpu time    2.2440: real time    2.2597
    MIXING:  cpu time    0.1400: real time    0.1398
    --------------------------------------------
      LOOP:  cpu time  135.1360: real time  135.9386

 eigenvalue-minimisations  :   776
 total energy-change (2. order) :-0.3026935E-02  (-0.5491475E-04)
 number of electron      55.9999995 magnetization       5.9969806
 augmentation part       -2.3706076 magnetization       4.5949339

 Broyden mixing:
  rms(total) = 0.37875E-02    rms(broyden)= 0.37875E-02
  rms(prec ) = 0.45787E-02
  weight for this iteration     100.00

 eigenvalues of (default mixing * dielectric matrix)
  average eigenvalue GAMMA=   1.5231
  7.4350  2.5848  1.4636  1.4636  1.5178  0.2836  0.9768  0.9768  0.7354  0.7354
  0.6703  0.6125  0.3451

 Free energy of the ion-electron system (eV)
  ---------------------------------------------------
  alpha Z        PSCENC =        31.35304452
  Ewald energy   TEWEN  =      5985.89955237
  -Hartree energ DENC   =     -8016.49726358
  -exchange      EXHF   =         0.00000000
  -V(xc)+E(xc)   XCENC  =       -64.23350111
  PAW double counting   =      1188.72805343    -1027.42437755
  entropy T*S    EENTRO =         0.00000000
  eigenvalues    EBANDS =      -459.81578506
  atomic energy  EATOM  =      2315.78410452
  Solvation  Ediel_sol  =         0.00000000
  ---------------------------------------------------
  free energy    TOTEN  =       -46.20617247 eV

  energy without entropy =      -46.20617247  energy(sigma->0) =      -46.20617247


--------------------------------------------------------------------------------------------------------




--------------------------------------- Iteration      1(  19)  ---------------------------------------


    POTLOK:  cpu time   97.5560: real time   98.2511
    SETDIJ:  cpu time    0.0800: real time    0.1113
     EDDAV:  cpu time   36.3520: real time   36.8724
 BZINTS: Fermi energy: -4.060621; 56.000000 electrons
         Band energy:-459.465876;  BLOECHL correction:  0.000000
       DOS:  cpu time    0.0000: real time    0.0023
    CHARGE:  cpu time    2.3080: real time    2.3442
    MIXING:  cpu time    0.0640: real time    0.0624
    --------------------------------------------
      LOOP:  cpu time  136.3600: real time  137.6437

 eigenvalue-minimisations  :   856
 total energy-change (2. order) :-0.3443491E-02  (-0.3599368E-04)
 number of electron      55.9999995 magnetization       6.0035362
 augmentation part       -2.3716126 magnetization       4.6024971

 Broyden mixing:
  rms(total) = 0.15794E-02    rms(broyden)= 0.15794E-02
  rms(prec ) = 0.27103E-02
  weight for this iteration     100.00

 eigenvalues of (default mixing * dielectric matrix)
  average eigenvalue GAMMA=   1.6574
  9.0944  2.6913  2.2601  1.4861  1.4861  0.2836  1.0227  1.0227  0.3451  0.7809
  0.7809  0.6097  0.6704  0.6704

 Free energy of the ion-electron system (eV)
  ---------------------------------------------------
  alpha Z        PSCENC =        31.35304452
  Ewald energy   TEWEN  =      5985.89955237
  -Hartree energ DENC   =     -8016.86379180
  -exchange      EXHF   =         0.00000000
  -V(xc)+E(xc)   XCENC  =       -64.22057845
  PAW double counting   =      1188.79622938    -1027.49230046
  entropy T*S    EENTRO =         0.00000000
  eigenvalues    EBANDS =      -459.46587604
  atomic energy  EATOM  =      2315.78410452
  Solvation  Ediel_sol  =         0.00000000
  ---------------------------------------------------
  free energy    TOTEN  =       -46.20961596 eV

  energy without entropy =      -46.20961596  energy(sigma->0) =      -46.20961596


--------------------------------------------------------------------------------------------------------




--------------------------------------- Iteration      1(  20)  ---------------------------------------


    POTLOK:  cpu time   98.7040: real time   99.1787
    SETDIJ:  cpu time    0.1000: real time    0.1003
     EDDAV:  cpu time   31.7440: real time   32.0223
 BZINTS: Fermi energy: -4.066210; 56.000000 electrons
         Band energy:-459.304298;  BLOECHL correction:  0.000000
       DOS:  cpu time    0.0040: real time    0.0022
    CHARGE:  cpu time    3.2800: real time    3.3294
    MIXING:  cpu time    0.0960: real time    0.0967
    --------------------------------------------
      LOOP:  cpu time  133.9280: real time  134.7298

 eigenvalue-minimisations  :   712
 total energy-change (2. order) :-0.1006479E-02  (-0.1145801E-04)
 number of electron      55.9999995 magnetization       6.0035236
 augmentation part       -2.3706351 magnetization       4.6032590

 Broyden mixing:
  rms(total) = 0.13684E-02    rms(broyden)= 0.13684E-02
  rms(prec ) = 0.24648E-02
  weight for this iteration     100.00

 eigenvalues of (default mixing * dielectric matrix)
  average eigenvalue GAMMA=   1.6348
  9.2830  2.7691  2.3435  1.5045  1.5045  1.0939  1.0939  0.2836  0.8358  0.8358
  0.3451  0.6967  0.6967  0.6178  0.6178

 Free energy of the ion-electron system (eV)
  ---------------------------------------------------
  alpha Z        PSCENC =        31.35304452
  Ewald energy   TEWEN  =      5985.89955237
  -Hartree energ DENC   =     -8017.02831354
  -exchange      EXHF   =         0.00000000
  -V(xc)+E(xc)   XCENC  =       -64.21839160
  PAW double counting   =      1188.84860085    -1027.54492164
  entropy T*S    EENTRO =         0.00000000
  eigenvalues    EBANDS =      -459.30429793
  atomic energy  EATOM  =      2315.78410452
  Solvation  Ediel_sol  =         0.00000000
  ---------------------------------------------------
  free energy    TOTEN  =       -46.21062244 eV

  energy without entropy =      -46.21062244  energy(sigma->0) =      -46.21062244


--------------------------------------------------------------------------------------------------------




--------------------------------------- Iteration      1(  21)  ---------------------------------------


    POTLOK:  cpu time   99.2640: real time  100.1736
    SETDIJ:  cpu time    0.0640: real time    0.0670
     EDDAV:  cpu time   29.5840: real time   30.4389
 BZINTS: Fermi energy: -4.055399; 56.000000 electrons
         Band energy:-459.198422;  BLOECHL correction:  0.000000
       DOS:  cpu time    0.0000: real time    0.0025
    CHARGE:  cpu time    3.1800: real time    3.2987
    MIXING:  cpu time    0.1360: real time    0.1349
    --------------------------------------------
      LOOP:  cpu time  132.2280: real time  134.1154

 eigenvalue-minimisations  :   656
 total energy-change (2. order) :-0.1285144E-03  (-0.2188850E-05)
 number of electron      55.9999995 magnetization       6.0019792
 augmentation part       -2.3707747 magnetization       4.6014964

 Broyden mixing:
  rms(total) = 0.10372E-02    rms(broyden)= 0.10372E-02
  rms(prec ) = 0.22053E-02
  weight for this iteration     100.00

 eigenvalues of (default mixing * dielectric matrix)
  average eigenvalue GAMMA=   1.6045
  9.2561  2.8474  2.3357  1.4820  1.4820  1.2100  1.2100  0.2836  0.9269  0.9269
  0.3451  0.7404  0.7404  0.6581  0.6034  0.6243

 Free energy of the ion-electron system (eV)
  ---------------------------------------------------
  alpha Z        PSCENC =        31.35304452
  Ewald energy   TEWEN  =      5985.89955237
  -Hartree energ DENC   =     -8017.13168095
  -exchange      EXHF   =         0.00000000
  -V(xc)+E(xc)   XCENC  =       -64.21990707
  PAW double counting   =      1188.87116717    -1027.56860949
  entropy T*S    EENTRO =         0.00000000
  eigenvalues    EBANDS =      -459.19842202
  atomic energy  EATOM  =      2315.78410452
  Solvation  Ediel_sol  =         0.00000000
  ---------------------------------------------------
  free energy    TOTEN  =       -46.21075096 eV

  energy without entropy =      -46.21075096  energy(sigma->0) =      -46.21075096


--------------------------------------------------------------------------------------------------------




--------------------------------------- Iteration      1(  22)  ---------------------------------------


    POTLOK:  cpu time   98.5360: real time   99.2032
    SETDIJ:  cpu time    0.0600: real time    0.0600
     EDDAV:  cpu time   30.5040: real time   30.9279
 BZINTS: Fermi energy: -4.062026; 56.000000 electrons
         Band energy:-458.939973;  BLOECHL correction:  0.000000
       DOS:  cpu time    0.0000: real time    0.0021
    CHARGE:  cpu time    3.1800: real time    3.2696
    MIXING:  cpu time    0.1400: real time    0.1374
    --------------------------------------------
      LOOP:  cpu time  132.4200: real time  133.6002

 eigenvalue-minimisations  :   712
 total energy-change (2. order) :-0.3547986E-03  (-0.9675637E-05)
 number of electron      55.9999995 magnetization       6.0017631
 augmentation part       -2.3710639 magnetization       4.6004699

 Broyden mixing:
  rms(total) = 0.66392E-03    rms(broyden)= 0.66391E-03
  rms(prec ) = 0.18246E-02
  weight for this iteration     100.00

 eigenvalues of (default mixing * dielectric matrix)
  average eigenvalue GAMMA=   1.6213
  9.2385  3.0128  2.2704  2.2704  1.4793  1.4793  0.2836  1.0748  1.0748  0.3451
  0.8596  0.8596  0.7214  0.7214  0.6340  0.6340  0.6029

 Free energy of the ion-electron system (eV)
  ---------------------------------------------------
  alpha Z        PSCENC =        31.35304452
  Ewald energy   TEWEN  =      5985.89955237
  -Hartree energ DENC   =     -8017.38422085
  -exchange      EXHF   =         0.00000000
  -V(xc)+E(xc)   XCENC  =       -64.22473363
[...]
     18      -5.4042      1.00000
     19      -5.3800      1.00000
     20      -4.9585      1.00000
     21      -4.7191      1.00000
     22      -4.4921      1.00000
     23      -4.3694      1.00000
     24      -3.8938      1.00000
     25      -3.6990      1.00000
     26      -2.0150      0.00000
     27      -1.4988      0.00000
     28      -1.3385      0.00000
     29      -1.2089      0.00000
     30      -0.9735      0.00000
     31      -0.8639      0.00000
     32      -0.8475      0.00000
     33      -0.4142      0.00000
     34      -0.3396      0.00000
     35      -0.2430      0.00000
     36      -0.1635      0.00000
     37       0.6005      0.00000
     38       0.9221      0.00000
     39       0.9268      0.00000
     40       1.8047      0.00000

 k-point     5 :      -0.4000    0.2000    0.0000
  band No.  band energies     occupation 
      1     -16.4012      1.00000
      2     -16.0762      1.00000
      3     -15.8670      1.00000
      4     -15.7579      1.00000
      5     -15.6516      1.00000
      6     -15.5055      1.00000
      7     -11.3998      1.00000
      8      -9.5568      1.00000
      9      -7.5677      1.00000
     10      -7.2156      1.00000
     11      -7.0489      1.00000
     12      -6.6717      1.00000
     13      -6.5307      1.00000
     14      -6.1159      1.00000
     15      -5.6921      1.00000
     16      -5.4800      1.00000
     17      -5.4285      1.00000
     18      -5.2448      1.00000
     19      -5.1578      1.00000
     20      -5.0419      1.00000
     21      -4.7325      1.00000
     22      -4.4225      1.00000
     23      -4.2690      1.00000
     24      -4.0418      1.00000
     25      -3.8253      1.00000
     26      -2.3815      0.00000
     27      -1.5589      0.00000
     28      -1.5573      0.00000
     29      -1.1776      0.00000
     30      -0.9686      0.00000
     31      -0.8616      0.00000
     32      -0.8416      0.00000
     33      -0.5645      0.00000
     34      -0.5584      0.00000
     35      -0.1793      0.00000
     36      -0.1238      0.00000
     37       0.5277      0.00000
     38       0.7363      0.00000
     39       0.9035      0.00000
     40       1.7381      0.00000


--------------------------------------------------------------------------------------------------------


 soft charge-density along one line, spin component           1
         0         1         2         3         4         5         6         7         8         9
 total charge-density along one line

 soft charge-density along one line, spin component           2
         0         1         2         3         4         5         6         7         8         9
 total charge-density along one line

 pseudopotential strength for first ion, spin component:           1
 -8.994   0.098  -0.000  -0.009   0.000   0.740  -0.027   0.000
  0.098  -8.919   0.000  -0.000  -0.009  -0.027   0.719  -0.000
 -0.000   0.000  -9.080   0.000   0.000   0.000  -0.000   0.763
 -0.009  -0.000   0.000  -8.919  -0.098   0.003   0.000  -0.000
  0.000  -0.009   0.000  -0.098  -8.994  -0.000   0.003  -0.000
  0.740  -0.027   0.000   0.003  -0.000   0.348   0.007  -0.000
 -0.027   0.719  -0.000   0.000   0.003   0.007   0.353   0.000
  0.000  -0.000   0.763  -0.000  -0.000  -0.000   0.000   0.342
  0.003   0.000  -0.000   0.719   0.027  -0.001   0.000   0.000
 -0.000   0.003  -0.000   0.027   0.740   0.000  -0.001   0.000
 -0.000  -0.000   0.001  -0.000   0.000  -0.000   0.000  -0.000
  0.000   0.000  -0.000   0.000  -0.000  -0.000  -0.000   0.000
 -0.000  -0.002   0.000  -0.000   0.001   0.000   0.001  -0.000
 -0.000  -0.000  -0.002  -0.000  -0.000   0.000   0.000   0.001
  0.001  -0.000   0.000  -0.002   0.000  -0.000   0.000  -0.000
  0.000   0.001  -0.000   0.000  -0.001  -0.000  -0.000   0.000
  0.000   0.000   0.000   0.000   0.000  -0.000  -0.000  -0.000
 -0.001   0.000  -0.000   0.001  -0.000   0.000  -0.000   0.000
 pseudopotential strength for first ion, spin component:           2
 -7.334  -0.183  -0.000   0.017   0.000   0.270   0.048   0.000
 -0.183  -7.525   0.000   0.000   0.017   0.048   0.321  -0.000
 -0.000   0.000  -7.225   0.000   0.000   0.000  -0.000   0.242
  0.017   0.000   0.000  -7.525   0.183  -0.005  -0.000  -0.000
  0.000   0.017   0.000   0.183  -7.334  -0.000  -0.005  -0.000
  0.270   0.048   0.000  -0.005  -0.000   0.477  -0.012  -0.000
  0.048   0.321  -0.000  -0.000  -0.005  -0.012   0.464   0.000
  0.000  -0.000   0.242  -0.000  -0.000  -0.000   0.000   0.484
 -0.005  -0.000  -0.000   0.321  -0.048   0.001   0.000   0.000
 -0.000  -0.005  -0.000  -0.048   0.270   0.000   0.001   0.000
 -0.000  -0.000   0.008  -0.000   0.000  -0.000   0.000  -0.001
  0.000   0.000  -0.001   0.000  -0.000  -0.000  -0.000   0.000
 -0.001  -0.001   0.000  -0.000   0.001   0.000   0.001  -0.000
 -0.000  -0.000  -0.001  -0.000   0.000   0.000   0.000   0.000
  0.001  -0.000   0.000  -0.001   0.001   0.000   0.000  -0.000
  0.000   0.001  -0.000   0.000  -0.001  -0.000  -0.000   0.000
  0.000   0.000  -0.000   0.000  -0.000  -0.000  -0.000   0.000
 -0.001   0.000  -0.000   0.001  -0.000   0.000  -0.000   0.000
 total augmentation occupancy for first ion, spin component:           1
  0.977  -0.063   0.000   0.005  -0.000   0.016   0.228  -0.000  -0.022  -0.000  -0.000  -0.000  -0.007  -0.000   0.006  -0.000
 -0.063   0.903  -0.000  -0.000   0.005   0.227   0.247   0.000  -0.000  -0.022   0.000   0.000  -0.014   0.000   0.001   0.000
  0.000  -0.000   1.039  -0.000  -0.000  -0.000   0.000  -0.134   0.000   0.000  -0.007  -0.016  -0.000  -0.002   0.000  -0.000
  0.005  -0.000  -0.000   0.903   0.063  -0.022   0.000   0.000   0.247  -0.227   0.000   0.000  -0.001   0.000  -0.014  -0.000
 -0.000   0.005  -0.000   0.063   0.977   0.000  -0.022   0.000  -0.228   0.016   0.000   0.000   0.006   0.000   0.007  -0.000
  0.016   0.227  -0.000  -0.022   0.000   0.167   0.066   0.000  -0.007  -0.000   0.000  -0.000   0.002  -0.000   0.019   0.000
  0.228   0.247   0.000   0.000  -0.022   0.066   0.240   0.000  -0.000  -0.007   0.000  -0.000  -0.008   0.000  -0.004   0.000
 -0.000   0.000  -0.134   0.000   0.000   0.000   0.000   0.169   0.000  -0.000   0.057  -0.010  -0.000  -0.009   0.000   0.000
 -0.022  -0.000   0.000   0.247  -0.228  -0.007  -0.000   0.000   0.240  -0.066   0.000   0.000   0.004   0.000  -0.008  -0.000
 -0.000  -0.022   0.000  -0.227   0.016  -0.000  -0.007  -0.000  -0.066   0.167  -0.000   0.000   0.019   0.000  -0.002  -0.001
 -0.000   0.000  -0.007   0.000   0.000   0.000   0.000   0.057   0.000  -0.000   1.043  -0.156   0.000  -0.018   0.000   0.000
 -0.000   0.000  -0.016   0.000   0.000  -0.000  -0.000  -0.010   0.000   0.000  -0.156   0.061   0.000   0.003   0.000   0.000
 -0.007  -0.014  -0.000  -0.001   0.006   0.002  -0.008  -0.000   0.004   0.019   0.000   0.000   0.210  -0.000  -0.000  -0.002
 -0.000   0.000  -0.002   0.000   0.000  -0.000  -0.000  -0.009   0.000   0.000  -0.018   0.003  -0.000   0.229   0.000   0.000
  0.006   0.001   0.000  -0.014   0.007   0.019  -0.004   0.000  -0.008  -0.002   0.000   0.000  -0.000   0.000   0.210   0.000
 -0.000   0.000  -0.000  -0.000  -0.000   0.000   0.000   0.000  -0.000  -0.001   0.000   0.000  -0.002   0.000   0.000   0.000
  0.000   0.000   0.001   0.000  -0.000   0.000   0.000   0.000   0.000  -0.000   0.000  -0.000   0.000  -0.003  -0.000  -0.000
 -0.000   0.000  -0.000   0.000   0.000  -0.001   0.000  -0.000   0.000  -0.000   0.000   0.000  -0.000  -0.000  -0.002  -0.000
 total augmentation occupancy for first ion, spin component:           2
  0.722  -0.305   0.000   0.029  -0.000  -0.172   0.068  -0.000  -0.006   0.000  -0.000  -0.000  -0.003   0.000  -0.002  -0.000
 -0.305   0.427  -0.000  -0.000   0.029   0.064  -0.098   0.000   0.000  -0.006   0.000   0.000  -0.001   0.000   0.005   0.000
  0.000  -0.000   0.913  -0.000  -0.000  -0.000   0.000  -0.247   0.000   0.000  -0.033  -0.006  -0.000   0.004  -0.000  -0.000
  0.029  -0.000  -0.000   0.427   0.305  -0.006  -0.000   0.000  -0.098  -0.064   0.000  -0.000  -0.005   0.000  -0.001   0.000
 -0.000   0.029  -0.000   0.305   0.722  -0.000  -0.006   0.000  -0.068  -0.172   0.000   0.000  -0.002  -0.000   0.003   0.001
 -0.172   0.064  -0.000  -0.006  -0.000   0.010  -0.058   0.000   0.006  -0.000   0.000   0.000   0.002  -0.000  -0.001   0.000
  0.068  -0.098   0.000  -0.000  -0.006  -0.058  -0.046  -0.000   0.000   0.006  -0.000  -0.000   0.002  -0.000  -0.001  -0.000
 -0.000   0.000  -0.247   0.000   0.000   0.000  -0.000   0.065  -0.000  -0.000   0.014   0.006   0.000  -0.001   0.000   0.000
 -0.006   0.000   0.000  -0.098  -0.068   0.006   0.000  -0.000  -0.046   0.058   0.000   0.000   0.001   0.000   0.002  -0.000
  0.000  -0.006   0.000  -0.064  -0.172  -0.000   0.006  -0.000   0.058   0.010  -0.000  -0.000  -0.001   0.000  -0.002   0.000
 -0.000   0.000  -0.033   0.000   0.000   0.000  -0.000   0.014   0.000  -0.000   0.161   0.066   0.000  -0.001   0.000   0.000
 -0.000   0.000  -0.006   0.000   0.000   0.000  -0.000   0.006   0.000  -0.000   0.066  -0.019   0.000  -0.001   0.000   0.000
 -0.003  -0.001  -0.000  -0.005  -0.002   0.002   0.002   0.000   0.001  -0.001   0.000   0.000   0.025  -0.000  -0.000   0.003
  0.000   0.000   0.004  -0.000  -0.000  -0.000   0.000  -0.001  -0.000   0.000  -0.001  -0.001  -0.000   0.021   0.000  -0.000
 -0.002   0.005  -0.000  -0.001   0.003  -0.001  -0.001   0.000   0.002  -0.002   0.000   0.000  -0.000   0.000   0.025   0.000
 -0.000   0.000  -0.000   0.000   0.001   0.000  -0.000   0.000  -0.000   0.000   0.000   0.000   0.003  -0.000   0.000  -0.000
  0.000   0.000   0.001   0.000  -0.000  -0.000  -0.000  -0.000   0.000   0.000  -0.000   0.000  -0.000   0.002   0.000   0.000
  0.001  -0.000   0.000   0.000   0.000   0.000   0.000   0.000  -0.000  -0.000  -0.000   0.000  -0.000   0.000   0.003   0.000


------------------------ aborting loop because EDIFF is reached ----------------------------------------





 total charge     

# of ion       s       p       d       tot
------------------------------------------
    1        0.337   0.438   4.219   4.994
    2        0.337   0.437   4.216   4.991
    3        1.156   1.156   0.103   2.415
    4        0.756   0.853   0.000   1.609
    5        1.475   2.344   0.037   3.856
    6        1.469   2.354   0.037   3.861
    7        1.474   2.345   0.037   3.856
    8        1.482   2.313   0.035   3.831
    9        1.479   2.316   0.034   3.829
   10        1.482   2.311   0.035   3.828
--------------------------------------------------
tot         11.448  16.868   8.754  37.070



 magnetization (x)

# of ion       s       p       d       tot
------------------------------------------
    1        0.037   0.041   2.979   3.057
    2        0.037   0.041   2.979   3.056
    3        0.002   0.041  -0.002   0.041
    4        0.004   0.029   0.000   0.033
    5       -0.000  -0.074   0.005  -0.069
    6       -0.001  -0.061   0.006  -0.057
    7       -0.000  -0.070   0.006  -0.065
    8       -0.001  -0.098   0.006  -0.093
    9       -0.002  -0.078   0.006  -0.074
   10       -0.001  -0.092   0.006  -0.087
--------------------------------------------------
tot          0.074  -0.322   5.990   5.741

    CHARGE:  cpu time    1.9720: real time    1.9739
    FORLOC:  cpu time    0.1200: real time    0.1186
    FORNL :  cpu time    5.9240: real time    6.1032
    STRESS:  cpu time   18.1400: real time   18.2716
    FORCOR:  cpu time  105.2560: real time  106.6483
    FORHAR:  cpu time    0.4520: real time    0.4623
    MIXING:  cpu time    0.0480: real time    0.0494
    OFIELD:  cpu time    0.0000: real time    0.0001

  FORCE on cell =-STRESS in cart. coord.  units (eV):
  Direction    XX          YY          ZZ          XY          YZ          ZX
  --------------------------------------------------------------------------------------
  Alpha Z    38.89173    38.89173    38.89173
  Ewald    8643.35135  8643.34917-10203.08402    -0.00109    -0.00040    -0.00073
  Hartree  8976.41861  8976.41898 -8813.29594    -0.00005     0.00005     0.00007
  E(xc)    -216.78758  -216.78760  -216.51680     0.00004     0.00001     0.00001
  Local  -18332.69715-18332.69656 18275.46003     0.00077     0.00018     0.00034
  n-local   289.48712   290.91651   292.69364     0.68491     0.36992     0.28061
  augment    30.29320    30.29326    27.48680     0.00001     0.00000     0.00003
  Kinetic   572.74060   567.78249   598.26545    -3.63078     0.87235     0.85059
  Fock        0.00000     0.00000     0.00000     0.00000     0.00000     0.00000
  -------------------------------------------------------------------------------------
  Total      -0.06708    -0.06708    -0.09913     0.00000    -0.00000    -0.00000
  in kB      -0.13760    -0.13760    -0.20334     0.00000    -0.00000    -0.00000
  external pressure =       -0.16 kB  Pullay stress =        0.00 kB


 VOLUME and BASIS-vectors are now :
 -----------------------------------------------------------------------------
  energy-cutoff  :      520.00
  volume of cell :      781.04
      direct lattice vectors                 reciprocal lattice vectors
     6.326211291 -0.000000013  0.000000000     0.158072494 -0.091263191 -0.000000000
     3.163105283  5.478659408 -0.000000000     0.000000000  0.182526404  0.000000000
     0.000000000 -0.000000000 22.534832337    -0.000000000  0.000000000  0.044375746

  length of vectors
     6.326211291  6.326210868 22.534832337     0.182526391  0.182526404  0.044375746


 FORCES acting on ions
    electron-ion (+dipol)            ewald-force                    non-local-force                 convergence-correction
 -----------------------------------------------------------------------------------------------
   -.922E-04 -.538E-04 -.637E+01   0.363E-03 0.214E-03 0.609E+01   -.327E-17 0.682E-17 0.241E+00   0.900E-07 0.322E-07 -.115E-01
   0.961E-04 0.557E-04 -.730E+01   -.346E-03 -.205E-03 0.702E+01   0.191E-18 -.112E-18 0.226E+00   0.891E-07 0.277E-07 -.109E-01
   -.410E-04 -.117E-04 0.196E+03   -.171E-03 -.957E-04 -.192E+03   0.675E-19 -.146E-17 -.403E+01   -.232E-06 -.100E-06 -.160E-01
   0.374E-04 0.183E-04 -.189E+03   0.180E-03 0.999E-04 0.184E+03   0.486E-17 -.287E-17 0.576E+01   -.199E-06 -.814E-07 0.567E-02
   0.214E+01 0.180E-01 -.409E+03   -.412E+01 0.415E-02 0.411E+03   0.194E+01 -.444E-02 -.222E+01   0.171E-01 -.196E-01 0.396E-01
   -.106E+01 -.186E+01 -.409E+03   0.206E+01 0.356E+01 0.411E+03   -.972E+00 -.167E+01 -.222E+01   -.255E-01 -.502E-02 0.396E-01
   -.109E+01 0.184E+01 -.409E+03   0.205E+01 -.357E+01 0.411E+03   -.964E+00 0.168E+01 -.222E+01   0.840E-02 0.246E-01 0.396E-01
   0.701E+01 0.517E-02 0.411E+03   -.487E+01 0.123E-01 -.413E+03   -.215E+01 0.672E-02 0.227E+01   -.969E-02 -.205E-01 -.517E-01
   -.350E+01 -.607E+01 0.411E+03   0.244E+01 0.421E+01 -.413E+03   0.108E+01 0.186E+01 0.227E+01   -.130E-01 0.187E-01 -.517E-01
   -.351E+01 0.607E+01 0.411E+03   0.242E+01 -.422E+01 -.413E+03   0.107E+01 -.187E+01 0.227E+01   0.226E-01 0.188E-02 -.517E-01
 -----------------------------------------------------------------------------------------------
   0.275E-04 0.231E-04 -.224E+01   -.124E-13 0.622E-14 -.171E-12   -.222E-15 -.222E-15 0.233E+01   -.154E-06 -.374E-07 -.689E-01


 POSITION                                       TOTAL-FORCE (eV/Angst)
 -----------------------------------------------------------------------------------
      3.16310      1.82622     11.26573        -0.000000     -0.000000     -0.059530
      6.32621      3.65244     11.26911        -0.000000     -0.000000     -0.071791
      0.00000     -0.00000     10.10047         0.000000     -0.000000      0.100632
      0.00000     -0.00000     12.42171        -0.000000     -0.000000     -0.100584
      4.06336      0.00102     12.89631        -0.020455     -0.001248      0.005171
      1.13231      1.95919     12.89631         0.009147      0.018339      0.005171
      4.29366      3.51846     12.89631         0.011308     -0.017091      0.005171
      5.55363      5.47765      9.62607        -0.019132      0.003007      0.038587
      8.29317      3.40890      9.62607         0.012170      0.015065      0.038587
      5.13182      2.07076      9.62607         0.006961     -0.018072      0.038587
 -----------------------------------------------------------------------------------
    total drift:                                0.000027      0.000023      0.022339


--------------------------------------------------------------------------------------------------------



  FREE ENERGIE OF THE ION-ELECTRON SYSTEM (eV)
  ---------------------------------------------------
  free  energy   TOTEN  =       -48.83209148 eV

  energy  without entropy=      -48.83209148  energy(sigma->0) =      -48.83209148

 d Force = 0.6790281E-03[-0.545E-03, 0.190E-02]  d Energy = 0.2207894E-02-0.153E-02
 d Force =-0.1009033E+01[-0.101E+01,-0.101E+01]  d Ewald  =-0.3308389E+02 0.321E+02


--------------------------------------------------------------------------------------------------------


    POTLOK:  cpu time   97.4320: real time   98.4825


--------------------------------------------------------------------------------------------------------




--------------------------------------------------------------------------------------------------------


  
 reached required accuracy - stopping structural energy minimisation
     LOOP+:  cpu time  736.6440: real time  742.2704
    4ORBIT:  cpu time    0.0000: real time    0.0000



 total charge     

# of ion       s       p       d       tot
------------------------------------------
    1        0.337   0.438   4.219   4.994
    2        0.337   0.437   4.216   4.991
    3        1.156   1.156   0.103   2.415
    4        0.756   0.853   0.000   1.609
    5        1.475   2.344   0.037   3.856
    6        1.469   2.354   0.037   3.861
    7        1.474   2.345   0.037   3.856
    8        1.482   2.313   0.035   3.831
    9        1.479   2.316   0.034   3.829
   10        1.482   2.311   0.035   3.828
--------------------------------------------------
tot         11.448  16.868   8.754  37.070



 magnetization (x)

# of ion       s       p       d       tot
------------------------------------------
    1        0.037   0.041   2.979   3.057
    2        0.037   0.041   2.979   3.056
    3        0.002   0.041  -0.002   0.041
    4        0.004   0.029   0.000   0.033
    5       -0.000  -0.074   0.005  -0.069
    6       -0.001  -0.061   0.006  -0.057
    7       -0.000  -0.070   0.006  -0.065
    8       -0.001  -0.098   0.006  -0.093
    9       -0.002  -0.078   0.006  -0.074
   10       -0.001  -0.092   0.006  -0.087
--------------------------------------------------
tot          0.074  -0.322   5.990   5.741

 BZINTS: Fermi energy: -3.251253; 56.000000 electrons
         Band energy:-448.692635;  BLOECHL correction:  0.000000

 total amount of memory used by VASP MPI-rank0   175667. kBytes
=======================================================================

   base      :      30000. kBytes
   nonlr-proj:       9488. kBytes
   fftplans  :      20284. kBytes
   grid      :      94580. kBytes
   one-center:        311. kBytes
   wavefun   :      21004. kBytes

  
  
 General timing and accounting informations for this job:
 ========================================================
  
                  Total CPU time used (sec):    11496.020
                            User time (sec):    11449.028
                          System time (sec):       46.992
                         Elapsed time (sec):    11583.775
  
                   Maximum memory used (kb):      594160.
                   Average memory used (kb):           0.
  
                          Minor page faults:     10703758
                          Major page faults:            4
                 Voluntary context switches:          843
