 vasp.5.4.4.18Apr17-6-g9f103f2a35 (build May  1 2020 15:48:39) complex           
 executed on             LinuxGNU date 2020.07.05  11:33:01
 running on   16 total cores
 distrk:  each k-point on   16 cores,    1 groups
 distr:  one band on NCORES_PER_BAND=   1 cores,   16 groups


--------------------------------------------------------------------------------------------------------


 INCAR:
 POTCAR:   PAW_PBE Fe 06Sep2000                   
 POTCAR:   PAW_PBE Ge 05Jan2001                   
 POTCAR:   PAW_PBE Si 05Jan2001                   
 POTCAR:   PAW_PBE Te 08Apr2002                   

 ----------------------------------------------------------------------------- 
|                                                                             |
|           W    W    AA    RRRRR   N    N  II  N    N   GGGG   !!!           |
|           W    W   A  A   R    R  NN   N  II  NN   N  G    G  !!!           |
|           W    W  A    A  R    R  N N  N  II  N N  N  G       !!!           |
|           W WW W  AAAAAA  RRRRR   N  N N  II  N  N N  G  GGG   !            |
|           WW  WW  A    A  R   R   N   NN  II  N   NN  G    G                |
|           W    W  A    A  R    R  N    N  II  N    N   GGGG   !!!           |
|                                                                             |
|      For optimal performance we recommend to set                            |
|        NCORE= 4 - approx SQRT( number of cores)                             |
|      NCORE specifies how many cores store one orbital (NPAR=cpu/NCORE).     |
|      This setting can  greatly improve the performance of VASP for DFT.     |
|      The default,   NCORE=1            might be grossly inefficient         |
|      on modern multi-core architectures or massively parallel machines.     |
|      Do your own testing !!!!                                               |
|      Unfortunately you need to use the default for GW and RPA calculations. |
|      (for HF NCORE is supported but not extensively tested yet)             |
|                                                                             |
 ----------------------------------------------------------------------------- 


 ----------------------------------------------------------------------------- 
|                                                                             |
|  ADVICE TO THIS USER RUNNING 'VASP/VAMP'   (HEAR YOUR MASTER'S VOICE ...):  |
|                                                                             |
|      You have switched on vdW-DFT.                                          |
|      This routine was written and supplied by Jiri Klimes.                  |
|      We recommed that you carefully read and cite the following             |
|      publication                                                            |
|      J. Klimes, D.R. Bowler, A. Michelides                                  |
|        J. Phys.: Cond Matt. 22 022201 (2010)                                |
|      J. Klimes, D.R. Bowler, A. Michelides                                  |
|        Phys. Rev. B. 83, 195131 (2011)                                      |
|      and references therein.                                                |
|                                                                             |
 ----------------------------------------------------------------------------- 

 POTCAR:   PAW_PBE Fe 06Sep2000                   
   VRHFIN =Fe:  d7 s1                                                           
   LEXCH  = PE                                                                  
   EATOM  =   594.4687 eV,   43.6922 Ry                                         
                                                                                
   TITEL  = PAW_PBE Fe 06Sep2000                                                
   LULTRA =        F    use ultrasoft PP ?                                      
   IUNSCR =        1    unscreen: 0-lin 1-nonlin 2-no                           
   RPACOR =    2.000    partial core radius                                     
   POMASS =   55.847; ZVAL   =    8.000    mass and valenz                      
   RCORE  =    2.300    outmost cutoff radius                                   
   RWIGS  =    2.460; RWIGS  =    1.302    wigner-seitz radius (au A)           
   ENMAX  =  267.883; ENMIN  =  200.912 eV                                      
   RCLOC  =    1.701    cutoff for local pot                                    
   LCOR   =        T    correct aug charges                                     
   LPAW   =        T    paw PP                                                  
   EAUG   =  511.368                                                            
   DEXC   =    -.022                                                            
   RMAX   =    2.817    core radius for proj-oper                               
   RAUG   =    1.300    factor for augmentation sphere                          
   RDEP   =    2.442    radius for radial grids                                 
   QCUT   =   -4.437; QGAM   =    8.874    optimization parameters              
                                                                                
   Description                                                                  
     l     E      TYP  RCUT    TYP  RCUT                                        
     2   .000     23  2.300                                                     
     2   .000     23  2.300                                                     
     0   .000     23  2.300                                                     
     0   .000     23  2.300                                                     
     1  -.200     23  2.300                                                     
     1   .000     23  2.300                                                     
     3   .000      7   .000                                                     
  local pseudopotential read in
  partial core-charges read in
  atomic valenz-charges read in
  non local Contribution for L=           2  read in
    real space projection operators read in
  non local Contribution for L=           2  read in
    real space projection operators read in
  non local Contribution for L=           0  read in
    real space projection operators read in
  non local Contribution for L=           0  read in
    real space projection operators read in
  non local Contribution for L=           1  read in
    real space projection operators read in
  non local Contribution for L=           1  read in
    real space projection operators read in
    PAW grid and wavefunctions read in

   number of l-projection  operators is LMAX  =           6
   number of lm-projection operators is LMMAX =          18

 POTCAR:   PAW_PBE Ge 05Jan2001                   
   VRHFIN =Ge: s2p2                                                             
   LEXCH  = PE                                                                  
   EATOM  =   104.9960 eV,    7.7170 Ry                                         
                                                                                
   TITEL  = PAW_PBE Ge 05Jan2001                                                
   LULTRA =        F    use ultrasoft PP ?                                      
   IUNSCR =        1    unscreen: 0-lin 1-nonlin 2-no                           
   RPACOR =    2.170    partial core radius                                     
   POMASS =   72.610; ZVAL   =    4.000    mass and valenz                      
   RCORE  =    2.300    outmost cutoff radius                                   
   RWIGS  =    2.300; RWIGS  =    1.217    wigner-seitz radius (au A)           
   ENMAX  =  173.807; ENMIN  =  130.355 eV                                      
   ICORE  =        3    local potential                                         
   LCOR   =        T    correct aug charges                                     
   LPAW   =        T    paw PP                                                  
   EAUG   =  385.843                                                            
   DEXC   =    -.138                                                            
   RMAX   =    3.497    core radius for proj-oper                               
   RAUG   =    1.300    factor for augmentation sphere                          
   RDEP   =    2.318    radius for radial grids                                 
   QCUT   =   -3.574; QGAM   =    7.148    optimization parameters              
                                                                                
   Description                                                                  
     l     E      TYP  RCUT    TYP  RCUT                                        
     0   .000     23  2.300                                                     
     0   .000     23  2.300                                                     
     1   .000     23  2.300                                                     
     1   .000     23  2.300                                                     
     2   .000     23  2.300                                                     
     3  -.100      7  2.300                                                     
  local pseudopotential read in
  partial core-charges read in
  atomic valenz-charges read in
  non local Contribution for L=           0  read in
    real space projection operators read in
  non local Contribution for L=           0  read in
    real space projection operators read in
  non local Contribution for L=           1  read in
    real space projection operators read in
  non local Contribution for L=           1  read in
    real space projection operators read in
  non local Contribution for L=           2  read in
    real space projection operators read in
    PAW grid and wavefunctions read in

   number of l-projection  operators is LMAX  =           5
   number of lm-projection operators is LMMAX =          13

 POTCAR:   PAW_PBE Si 05Jan2001                   
   VRHFIN =Si: s2p2                                                             
   LEXCH  = PE                                                                  
   EATOM  =   103.0669 eV,    7.5752 Ry                                         
                                                                                
   TITEL  = PAW_PBE Si 05Jan2001                                                
   LULTRA =        F    use ultrasoft PP ?                                      
   IUNSCR =        1    unscreen: 0-lin 1-nonlin 2-no                           
   RPACOR =    1.500    partial core radius                                     
   POMASS =   28.085; ZVAL   =    4.000    mass and valenz                      
   RCORE  =    1.900    outmost cutoff radius                                   
   RWIGS  =    2.480; RWIGS  =    1.312    wigner-seitz radius (au A)           
   ENMAX  =  245.345; ENMIN  =  184.009 eV                                      
   ICORE  =        2    local potential                                         
   LCOR   =        T    correct aug charges                                     
   LPAW   =        T    paw PP                                                  
   EAUG   =  322.069                                                            
   DEXC   =    -.007                                                            
   RMAX   =    2.944    core radius for proj-oper                               
   RAUG   =    1.300    factor for augmentation sphere                          
   RDEP   =    1.993    radius for radial grids                                 
   QCUT   =   -4.246; QGAM   =    8.493    optimization parameters              
                                                                                
   Description                                                                  
     l     E      TYP  RCUT    TYP  RCUT                                        
     0   .000     23  1.900                                                     
     0   .000     23  1.900                                                     
     1   .000     23  1.900                                                     
     1   .000     23  1.900                                                     
     2   .000      7  1.900                                                     
  local pseudopotential read in
  partial core-charges read in
  atomic valenz-charges read in
  non local Contribution for L=           0  read in
    real space projection operators read in
  non local Contribution for L=           0  read in
    real space projection operators read in
  non local Contribution for L=           1  read in
    real space projection operators read in
  non local Contribution for L=           1  read in
    real space projection operators read in
    PAW grid and wavefunctions read in

   number of l-projection  operators is LMAX  =           4
   number of lm-projection operators is LMMAX =           8

 POTCAR:   PAW_PBE Te 08Apr2002                   
   VRHFIN =Te: s2p4                                                             
   LEXCH  = PE                                                                  
   EATOM  =   223.2721 eV,   16.4100 Ry                                         
                                                                                
   TITEL  = PAW_PBE Te 08Apr2002                                                
   LULTRA =        F    use ultrasoft PP ?                                      
   IUNSCR =        1    unscreen: 0-lin 1-nonlin 2-no                           
   RPACOR =    2.200    partial core radius                                     
   POMASS =  127.600; ZVAL   =    6.000    mass and valenz                      
   RCORE  =    2.300    outmost cutoff radius                                   
   RWIGS  =    2.900; RWIGS  =    1.535    wigner-seitz radius (au A)           
   ENMAX  =  174.982; ENMIN  =  131.236 eV                                      
   ICORE  =        3    local potential                                         
   LCOR   =        T    correct aug charges                                     
   LPAW   =        T    paw PP                                                  
   EAUG   =  368.792                                                            
   DEXC   =    -.169                                                            
   RMAX   =    3.486    core radius for proj-oper                               
   RAUG   =    1.300    factor for augmentation sphere                          
   RDEP   =    2.397    radius for radial grids                                 
   QCUT   =   -3.586; QGAM   =    7.172    optimization parameters              
                                                                                
   Description                                                                  
     l     E      TYP  RCUT    TYP  RCUT                                        
     0   .000     23  2.300                                                     
     0   .000     23  2.300                                                     
     1   .000     23  2.300                                                     
     1   .000     23  2.300                                                     
     2   .000     23  2.300                                                     
     3  -.100     23  2.300                                                     
  local pseudopotential read in
  partial core-charges read in
  atomic valenz-charges read in
  non local Contribution for L=           0  read in
    real space projection operators read in
  non local Contribution for L=           0  read in
    real space projection operators read in
  non local Contribution for L=           1  read in
    real space projection operators read in
  non local Contribution for L=           1  read in
    real space projection operators read in
  non local Contribution for L=           2  read in
    real space projection operators read in
    PAW grid and wavefunctions read in

   number of l-projection  operators is LMAX  =           5
   number of lm-projection operators is LMMAX =          13

 Optimization of the real space projectors (new method)

 maximal supplied QI-value         = 16.25
 optimisation between [QCUT,QGAM] = [ 11.54, 23.24] = [ 37.28,151.24] Ry 
 Optimized for a Real-space Cutoff    1.53 Angstroem

   l    n(q)    QCUT    max X(q) W(low)/X(q) W(high)/X(q)  e(spline) 
   2     10    11.539     4.378    0.86E-05    0.15E-04    0.46E-07
   2     10    11.539    23.237    0.11E-03    0.14E-03    0.22E-06
   0     11    11.539    17.641    0.19E-04    0.14E-05    0.18E-07
   0     11    11.539    50.908    0.43E-04    0.16E-04    0.30E-06
   1     10    11.539     6.148    0.11E-04    0.38E-05    0.26E-07
   1     10    11.539     8.345    0.44E-04    0.25E-04    0.11E-06
 Optimization of the real space projectors (new method)

 maximal supplied QI-value         = 16.25
 optimisation between [QCUT,QGAM] = [ 11.54, 23.24] = [ 37.28,151.24] Ry 
 Optimized for a Real-space Cutoff    1.28 Angstroem

   l    n(q)    QCUT    max X(q) W(low)/X(q) W(high)/X(q)  e(spline) 
   0      9    11.539     8.651    0.22E-04    0.16E-04    0.10E-07
   0      9    11.539    33.192    0.11E-03    0.16E-03    0.65E-07
   1      8    11.539     5.899    0.37E-04    0.28E-04    0.43E-07
   1      8    11.539    27.289    0.22E-03    0.28E-04    0.14E-06
   2      8    11.539     4.673    0.11E-03    0.18E-03    0.58E-07
 Optimization of the real space projectors (new method)

 maximal supplied QI-value         = 19.84
 optimisation between [QCUT,QGAM] = [ 11.51, 23.22] = [ 37.09,150.92] Ry 
 Optimized for a Real-space Cutoff    1.21 Angstroem

   l    n(q)    QCUT    max X(q) W(low)/X(q) W(high)/X(q)  e(spline) 
   0      8    11.508     8.708    0.18E-04    0.44E-05    0.47E-08
   0      8    11.508   106.241    0.70E-04    0.15E-03    0.51E-07
   1      8    11.508     5.901    0.63E-05    0.23E-04    0.21E-07
   1      8    11.508    73.241    0.15E-03    0.36E-04    0.79E-07
 Optimization of the real space projectors (new method)

 maximal supplied QI-value         = 16.25
 optimisation between [QCUT,QGAM] = [ 11.54, 23.24] = [ 37.28,151.24] Ry 
 Optimized for a Real-space Cutoff    1.36 Angstroem

   l    n(q)    QCUT    max X(q) W(low)/X(q) W(high)/X(q)  e(spline) 
   0      9    11.539     7.090    0.13E-04    0.25E-05    0.51E-08
   0      9    11.539   101.654    0.53E-04    0.69E-04    0.12E-06
   1      9    11.539     5.276    0.20E-04    0.98E-05    0.24E-07
   1      9    11.539    81.891    0.24E-03    0.13E-04    0.15E-06
   2      9    11.539     5.599    0.30E-04    0.97E-04    0.54E-07

 ----------------------------------------------------------------------------- 
|                                                                             |
|  ADVICE TO THIS USER RUNNING 'VASP/VAMP'   (HEAR YOUR MASTER'S VOICE ...):  |
|                                                                             |
|      You enforced a specific xc-type in the INCAR file,                     |
|      a different type was found on the POTCAR file                          |
|          I HOPE YOU KNOW, WHAT YOU ARE  DOING                               |
|                                                                             |
 ----------------------------------------------------------------------------- 

 PAW_PBE Fe 06Sep2000                   :
 energy of atom  1       EATOM= -594.4687
 kinetic energy error for atom=    0.0026 (will be added to EATOM!!)
 PAW_PBE Ge 05Jan2001                   :
 energy of atom  2       EATOM= -104.9960
 kinetic energy error for atom=    0.0002 (will be added to EATOM!!)
 PAW_PBE Si 05Jan2001                   :
 energy of atom  3       EATOM= -103.0669
 kinetic energy error for atom=    0.0005 (will be added to EATOM!!)
 PAW_PBE Te 08Apr2002                   :
 energy of atom  4       EATOM= -223.2721
 kinetic energy error for atom=    0.0007 (will be added to EATOM!!)


 POSCAR: Fe2 Ge Si Te6                           
  positions in direct lattice
  velocities in cartesian coordinates
  No initial velocities read in
 exchange correlation table for  LEXCH =       42
   RHO(1)=    0.500       N(1)  =     2000
   RHO(2)=  100.500       N(2)  =     4000



--------------------------------------------------------------------------------------------------------


 ion  position               nearest neighbor table
   1  0.333  0.333  0.500-   6 2.78   5 2.78   7 2.78   8 2.78  10 2.78   9 2.78
   2  0.667  0.667  0.500-   9 2.78   8 2.78  10 2.78   5 2.78   7 2.78   6 2.78
   3  0.000  0.000  0.448-   4 2.43   8 2.63  10 2.63   9 2.63
   4  0.000  0.000  0.552-   3 2.43   5 2.63   7 2.63   6 2.63
   5  0.626  0.000  0.574-   4 2.63   1 2.78   2 2.78
   6  0.000  0.373  0.574-   4 2.63   1 2.78   2 2.78
   7  0.373  0.626  0.574-   4 2.63   1 2.78   2 2.78
   8  0.374  1.000  0.426-   3 2.63   2 2.78   1 2.78
   9  1.000  0.627  0.426-   3 2.63   2 2.78   1 2.78
  10  0.627  0.374  0.426-   3 2.63   2 2.78   1 2.78

  LATTYP: Found a hexagonal cell.
 ALAT       =     6.9077769333
 C/A-ratio  =     3.3939410937
  
  Lattice vectors:
  
 A1 = (   3.4538890000,  -5.9823100000,   0.0000000000)
 A2 = (  -6.9077770000,   0.0000000000,   0.0000000000)
 A3 = (   0.0000000000,   0.0000000000, -23.4445880000)


Analysis of symmetry for initial positions (statically):
=====================================================================
 Subroutine PRICEL returns:
 Original cell was already a primitive cell.
 

 Routine SETGRP: Setting up the symmetry group for a 
 hexagonal supercell.


 Subroutine GETGRP returns: Found  3 space group operations
 (whereof  3 operations were pure point group operations)
 out of a pool of 24 trial point group operations.


The static configuration has the point symmetry C_3 .


Analysis of symmetry for dynamics (positions and initial velocities):
=====================================================================
 Subroutine PRICEL returns:
 Original cell was already a primitive cell.
 

 Routine SETGRP: Setting up the symmetry group for a 
 hexagonal supercell.


 Subroutine GETGRP returns: Found  3 space group operations
 (whereof  3 operations were pure point group operations)
 out of a pool of 24 trial point group operations.


The dynamic configuration has the point symmetry C_3 .


Analysis of constrained symmetry for selective dynamics:
=====================================================================
 Subroutine PRICEL returns:
 Original cell was already a primitive cell.
 

 Routine SETGRP: Setting up the symmetry group for a 
 hexagonal supercell.


 Subroutine GETGRP returns: Found  3 space group operations
 (whereof  3 operations were pure point group operations)
 out of a pool of 24 trial point group operations.


The constrained configuration has the point symmetry C_3 .


Analysis of structural, dynamic, and magnetic symmetry:
=====================================================================
 Subroutine PRICEL returns:
 Original cell was already a primitive cell.
 

 Routine SETGRP: Setting up the symmetry group for a 
 hexagonal supercell.


 Subroutine GETGRP returns: Found  3 space group operations
 (whereof  3 operations were pure point group operations)
 out of a pool of 24 trial point group operations.


The magnetic configuration has the point symmetry C_3 .


 Subroutine INISYM returns: Found  3 space group operations
 (whereof  3 operations are pure point group operations),
 and found     1 'primitive' translations



 KPOINTS: Kpoints from vasprun.xml                

Automatic generation of k-mesh.
Space group operators:
 irot       det(A)        alpha          n_x          n_y          n_z        tau_x        tau_y        tau_z
    1     1.000000     0.000000     1.000000     0.000000     0.000000     0.000000     0.000000     0.000000
    2     1.000000   120.000000     0.000000     0.000000     1.000000     0.000000     0.000000     0.000000
    3     1.000000   120.000000     0.000000     0.000000    -1.000000     0.000000     0.000000     0.000000
 
 Subroutine IBZKPT returns following result:
 ===========================================
 
 Found      5 irreducible k-points:
 
 Following reciprocal coordinates:
            Coordinates               Weight
  0.000000  0.000000  0.000000      1.000000
  0.200000  0.000000  0.000000      6.000000
  0.400000  0.000000  0.000000      6.000000
  0.400000  0.200000  0.000000      6.000000
 -0.400000  0.200000  0.000000      6.000000
 
 Following cartesian coordinates:
            Coordinates               Weight
  0.000000  0.000000  0.000000      1.000000
  0.028953 -0.016716  0.000000      6.000000
  0.057906 -0.033432  0.000000      6.000000
  0.057906  0.000000  0.000000      6.000000
 -0.057906  0.066864  0.000000      6.000000
 
 TETIRR: Found     15 inequivalent tetrahedra from      150


--------------------------------------------------------------------------------------------------------




 Dimension of arrays:
   k-points           NKPTS =      5   k-points in BZ     NKDIM =      5   number of bands    NBANDS=     48
   number of dos      NEDOS =    301   number of ions     NIONS =     10
   non local maximal  LDIM  =      6   non local SUM 2l+1 LMDIM =     18
   total plane-waves  NPLWV = 524880
   max r-space proj   IRMAX =   8238   max aug-charges    IRDMAX=  31706
   dimension x,y,z NGX =    54 NGY =   54 NGZ =  180
   dimension x,y,z NGXF=   108 NGYF=  108 NGZF=  360
   support grid    NGXF=   108 NGYF=  108 NGZF=  360
   ions per type =               2   1   1   6
   NGX,Y,Z   is equivalent  to a cutoff of  13.00, 13.00, 12.76 a.u.
   NGXF,Y,Z  is equivalent  to a cutoff of  25.99, 25.99, 25.53 a.u.

 SYSTEM =  unknown system                          
 POSCAR =  Fe2 Ge Si Te6                           

 Startparameter for this run:
   NWRITE =      2    write-flag & timer
   PREC   = accura    normal or accurate (medium, high low for compatibility)
   ISTART =      0    job   : 0-new  1-cont  2-samecut
   ICHARG =      2    charge: 1-file 2-atom 10-const
   ISPIN  =      2    spin polarized calculation?
   LNONCOLLINEAR =      F non collinear calculations
   LSORBIT =      F    spin-orbit coupling
   INIWAV =      1    electr: 0-lowe 1-rand  2-diag
   LASPH  =      F    aspherical Exc in radial PAW
   METAGGA=      F    non-selfconsistent MetaGGA calc.

 Electronic Relaxation 1
   ENCUT  =  520.0 eV  38.22 Ry    6.18 a.u.  12.84 12.84 43.59*2*pi/ulx,y,z
   ENINI  =  520.0     initial cutoff
   ENAUG  =  511.4 eV  augmentation charge cutoff
   NELM   =    400;   NELMIN=  2; NELMDL=  0     # of ELM steps 
   EDIFF  = 0.1E-03   stopping-criterion for ELM
   LREAL  =      T    real-space projection
   NLSPLINE    = F    spline interpolate recip. space projectors
   LCOMPAT=      F    compatible to vasp.4.4
   GGA_COMPAT  = T    GGA compatible to vasp.4.4-vasp.4.6
   LMAXPAW     = -100 max onsite density
   LMAXMIX     =    2 max onsite mixed and CHGCAR
   VOSKOWN=      0    Vosko Wilk Nusair interpolation
   ROPT   =   -0.00025  -0.00025  -0.00025  -0.00025
 Ionic relaxation
   EDIFFG = 0.1E-02   stopping-criterion for IOM
   NSW    =     99    number of steps for IOM
   NBLOCK =      1;   KBLOCK =     99    inner block; outer block 
   IBRION =      2    ionic relax: 0-MD 1-quasi-New 2-CG
   NFREE  =      1    steps in history (QN), initial steepest desc. (CG)
   ISIF   =      3    stress and relaxation
   IWAVPR =     11    prediction:  0-non 1-charg 2-wave 3-comb
   ISYM   =      2    0-nonsym 1-usesym 2-fastsym
   LCORR  =      T    Harris-Foulkes like correction to forces

   POTIM  = 0.5000    time-step for ionic-motion
   TEIN   =    0.0    initial temperature
   TEBEG  =    0.0;   TEEND  =   0.0 temperature during run
   SMASS  =  -3.00    Nose mass-parameter (am)
   estimated Nose-frequenzy (Omega)   =  0.10E-29 period in steps =****** mass=  -0.109E-26a.u.
   SCALEE = 1.0000    scale energy and forces
   NPACO  =    256;   APACO  = 16.0  distance and # of slots for P.C.
   PSTRESS=    0.0 pullay stress

  Mass of Ions in am
   POMASS =  55.85 72.61 28.09127.60
  Ionic Valenz
   ZVAL   =   8.00  4.00  4.00  6.00
  Atomic Wigner-Seitz radii
   RWIGS  =  -1.00 -1.00 -1.00 -1.00
  virtual crystal weights 
   VCA    =   1.00  1.00  1.00  1.00
   NELECT =      60.0000    total number of electrons
   NUPDOWN=      -1.0000    fix difference up-down

 DOS related values:
   EMIN   =  10.00;   EMAX   =-10.00  energy-range for DOS
   EFERMI =   0.00
   ISMEAR =    -5;   SIGMA  =   0.05  broadening in eV -4-tet -1-fermi 0-gaus

 Electronic relaxation 2 (details)
   IALGO  =     38    algorithm
   LDIAG  =      T    sub-space diagonalisation (order eigenvalues)
   LSUBROT=      F    optimize rotation matrix (better conditioning)
   TURBO    =      0    0=normal 1=particle mesh
   IRESTART =      0    0=no restart 2=restart with 2 vectors
   NREBOOT  =      0    no. of reboots
   NMIN     =      0    reboot dimension
   EREF     =   0.00    reference energy to select bands
   IMIX   =      4    mixing-type and parameters
     AMIX     =   0.40;   BMIX     =  1.00
     AMIX_MAG =   1.60;   BMIX_MAG =  1.00
     AMIN     =   0.01
     WC   =   100.;   INIMIX=   1;  MIXPRE=   1;  MAXMIX= -45

 Intra band minimization:
   WEIMIN = 0.0010     energy-eigenvalue tresh-hold
   EBREAK =  0.52E-06  absolut break condition
   DEPER  =   0.30     relativ break condition  

   TIME   =   0.40     timestep for ELM

  volume/ion in A,a.u.               =      96.88       653.80
  Fermi-wavevector in a.u.,A,eV,Ry     =   0.647702  1.223979  5.707889  0.419518
  Thomas-Fermi vector in A             =   1.716096

 Write flags
   LWAVE        =      F    write WAVECAR
   LDOWNSAMPLE  =      F    k-point downsampling of WAVECAR
   LCHARG       =      T    write CHGCAR
   LVTOT        =      F    write LOCPOT, total local potential
   LVHAR        =      F    write LOCPOT, Hartree potential only
   LELF         =      F    write electronic localiz. function (ELF)
   LORBIT       =     11    0 simple, 1 ext, 2 COOP (PROOUT), +10 PAW based schemes


 Dipole corrections
   LMONO  =      F    monopole corrections only (constant potential shift)
   LDIPOL =      F    correct potential (dipole corrections)
   IDIPOL =      0    1-x, 2-y, 3-z, 4-all directions 
   EPSILON=  1.0000000 bulk dielectric constant

 Exchange correlation treatment:
   GGA     =    BO    GGA type
   LEXCH   =    42    internal setting for exchange type
   VOSKOWN=      0    Vosko Wilk Nusair interpolation
   LHFCALC =     F    Hartree Fock is set to
   LHFONE  =     F    Hartree Fock one center treatment
   AEXX    =    0.0000 exact exchange contribution

 vdW DFT:
   LUSE_VDW   =     T    switch on vdW DFT
   Zab_VDW    =-.8491    correlation parameter
   PARAM1     =0.1833
   PARAM2     =0.2200
   PARAM3     =0.0000
   -- rVV10 --
   BPARAM     = 6.3000
   CPARAM     = 0.0093

 Linear response parameters
   LEPSILON=     F    determine dielectric tensor
   LRPA    =     F    only Hartree local field effects (RPA)
   LNABLA  =     F    use nabla operator in PAW spheres
   LVEL    =     F    velocity operator in full k-point grid
   LINTERFAST=   F  fast interpolation
   KINTER  =     0    interpolate to denser k-point grid
   CSHIFT  =0.1000    complex shift for real part using Kramers Kronig
   OMEGAMAX=  -1.0    maximum frequency
   DEG_THRESHOLD= 0.2000000E-02 threshold for treating states as degnerate
   RTIME   =   -0.100 relaxation time in fs
  (WPLASMAI=    0.000 imaginary part of plasma frequency in eV, 0.658/RTIME)
   DFIELD  = 0.0000000 0.0000000 0.0000000 field for delta impulse in time

 Orbital magnetization related:
   ORBITALMAG=     F  switch on orbital magnetization
   LCHIMAG   =     F  perturbation theory with respect to B field
   DQ        =  0.001000  dq finite difference perturbation B field
   LLRAUG    =     F  two centre corrections for induced B field



--------------------------------------------------------------------------------------------------------


 conjugate gradient relaxation of ions
   using selective dynamics as specified on POSCAR
 charge density and potential will be updated during run
 spin polarized calculation
 Variant of blocked Davidson
 Davidson routine will perform the subspace rotation
 perform sub-space diagonalisation
    after iterative eigenvector-optimisation
 modified Broyden-mixing scheme, WC =      100.0
 initial mixing is a Kerker type mixing with AMIX =  0.4000 and BMIX =      1.0000
 Hartree-type preconditioning will be used
 using additional bands           18
 real space projection scheme for non local part
 use partial core corrections
 calculate Harris-corrections to forces   (improved forces if not selfconsistent)
 use gradient corrections 
 use of overlap-Matrix (Vanderbilt PP)
 Fermi weights with tetrahedron method with Bloechl corrections


--------------------------------------------------------------------------------------------------------


  energy-cutoff  :      520.00
  volume of cell :      968.84
      direct lattice vectors                 reciprocal lattice vectors
     6.907777000 -0.000000000  0.000000000     0.144764372 -0.083579742  0.000000000
     3.453888000  5.982310000  0.000000000     0.000000000  0.167159509 -0.000000000
     0.000000000  0.000000000 23.444588000    -0.000000000  0.000000000  0.042653767

  length of vectors
     6.907777000  6.907776433 23.444588000     0.167159495  0.167159509  0.042653767



 k-points in units of 2pi/SCALE and weight: Kpoints from vasprun.xml                
   0.00000000  0.00000000  0.00000000       0.040
   0.02895287 -0.01671595  0.00000000       0.240
   0.05790575 -0.03343190  0.00000000       0.240
   0.05790575  0.00000000  0.00000000       0.240
  -0.05790575  0.06686380  0.00000000       0.240

 k-points in reciprocal lattice and weights: Kpoints from vasprun.xml                
   0.00000000  0.00000000  0.00000000       0.040
   0.20000000  0.00000000  0.00000000       0.240
   0.40000000  0.00000000  0.00000000       0.240
   0.40000000  0.20000000  0.00000000       0.240
  -0.40000000  0.20000000  0.00000000       0.240

 position of ions in fractional coordinates (direct lattice) 
   0.33333300  0.33333300  0.49992500
   0.66666700  0.66666700  0.50007500
   0.00000000  0.00000000  0.44821600
   0.00000000  0.00000000  0.55178400
   0.62635700  0.00042000  0.57375200
   0.00042000  0.37322400  0.57375200
   0.37322400  0.62635700  0.57375200
   0.37364300  0.99958000  0.42624800
   0.99958000  0.62677600  0.42624800
   0.62677600  0.37364300  0.42624800

 position of ions in cartesian coordinates  (Angst):
   3.45388488  1.99410134 11.72053566
   6.90778012  3.98820866 11.72405234
   0.00000000  0.00000000 10.50823946
   0.00000000  0.00000000 12.93634854
   4.32818511  0.00251257 13.45137925
   1.29197516  2.23274167 13.45137925
   4.74151509  3.74706174 13.45137925
   6.03347989  5.97979743  9.99320875
   9.06968984  3.74956833  9.99320875
   5.62014991  2.23524826  9.99320875



--------------------------------------------------------------------------------------------------------


 k-point  1 :   0.0000 0.0000 0.0000  plane waves:   26073
 k-point  2 :   0.2000 0.0000 0.0000  plane waves:   26070
 k-point  3 :   0.4000 0.0000 0.0000  plane waves:   26086
 k-point  4 :   0.4000 0.2000 0.0000  plane waves:   26085
 k-point  5 :  -0.4000 0.2000 0.0000  plane waves:   26115

 maximum and minimum number of plane-waves per node :     26115    26070

 maximum number of plane-waves:     26115
 maximum index in each direction: 
   IXMAX=   13   IYMAX=   12   IZMAX=   43
   IXMIN=  -13   IYMIN=  -13   IZMIN=  -43


 serial   3D FFT for wavefunctions
 parallel 3D FFT for charge:
    minimum data exchange during FFTs selected (reduces bandwidth)


 total amount of memory used by VASP MPI-rank0   131047. kBytes
=======================================================================

   base      :      30000. kBytes
   nonlr-proj:       8547. kBytes
   fftplans  :      11247. kBytes
   grid      :      68332. kBytes
   one-center:        311. kBytes
   wavefun   :      12610. kBytes

     INWAV:  cpu time    0.0000: real time    0.0017
 Broyden mixing: mesh for mixing (old mesh)
   NGX = 25   NGY = 25   NGZ = 87
  (NGX  =108   NGY  =108   NGZ  =360)
  gives a total of  54375 points

 initial charge density was supplied:
 charge density of overlapping atoms calculated
 number of electron      60.0000000 magnetization      12.0600000
 keeping initial charge density in first step


--------------------------------------------------------------------------------------------------------


 Maximum index for non-local projection operator         7925
 Maximum index for augmentation-charges         2278 (set IRDMAX)


--------------------------------------------------------------------------------------------------------


 First call to EWALD:  gamma=   0.179
 Maximum number of real-space cells 4x 4x 1
 Maximum number of reciprocal cells 2x 2x 6

    FEWALD:  cpu time    0.0000: real time    0.0015


--------------------------------------- Iteration      1(   1)  ---------------------------------------


vdW kernel read from vdw_kernel.bindat
  0.0000  0.2424  0.5071  0.7962  1.1119  1.4567  1.8333  2.2446  2.6937  3.1842
  3.7199  4.3049  4.9438  5.6415  6.4036  7.2358  8.1446  9.1372 10.2212 11.4050
 12.6979 14.1099 15.6519 17.3360 19.1751 21.1837 23.3773 25.7729 28.3892 31.2465
 34.3669 37.7748 41.4965 45.5611 50.0000

    POTLOK:  cpu time   52.0320: real time   52.2578
    SETDIJ:  cpu time    0.0240: real time    0.0754
     EDDAV:  cpu time   22.8600: real time   23.3283
 BZINTS: Fermi energy:  5.939743; 60.000000 electrons
         Band energy:  25.382753;  BLOECHL correction: -0.031663
       DOS:  cpu time    0.0080: real time    0.0068
    --------------------------------------------
      LOOP:  cpu time   74.9240: real time   75.6683

 eigenvalue-minimisations  :   960
 total energy-change (2. order) : 0.3850968E+03  (-0.1768726E+04)
 number of electron      60.0000000 magnetization      12.0600000
 augmentation part       60.0000000 magnetization      12.0600000

 Free energy of the ion-electron system (eV)
  ---------------------------------------------------
  alpha Z        PSCENC =        15.78552958
  Ewald energy   TEWEN  =      7005.02028753
  -Hartree energ DENC   =     -9486.34761587
  -exchange      EXHF   =         0.00000000
  -V(xc)+E(xc)   XCENC  =      -184.67738507
  PAW double counting   =      1658.33511010    -1398.26267546
  entropy T*S    EENTRO =         0.00000000
  eigenvalues    EBANDS =        25.38275317
  atomic energy  EATOM  =      2749.86080559
  Solvation  Ediel_sol  =         0.00000000
  ---------------------------------------------------
  free energy    TOTEN  =       385.09680958 eV

  energy without entropy =      385.09680958  energy(sigma->0) =      385.09680958


--------------------------------------------------------------------------------------------------------




--------------------------------------- Iteration      1(   2)  ---------------------------------------


     EDDAV:  cpu time   28.3760: real time   29.3402
 BZINTS: Fermi energy: -0.559262; 60.001201 electrons
         Band energy:-354.416717;  BLOECHL correction: -0.035907
       DOS:  cpu time    0.0080: real time    0.0069
    --------------------------------------------
      LOOP:  cpu time   28.3840: real time   29.3470

 eigenvalue-minimisations  :  1248
 total energy-change (2. order) :-0.3797995E+03  (-0.3591770E+03)
 number of electron      60.0000000 magnetization      12.0600000
 augmentation part       60.0000000 magnetization      12.0600000

 Free energy of the ion-electron system (eV)
  ---------------------------------------------------
  alpha Z        PSCENC =        15.78552958
  Ewald energy   TEWEN  =      7005.02028753
  -Hartree energ DENC   =     -9486.34761587
  -exchange      EXHF   =         0.00000000
  -V(xc)+E(xc)   XCENC  =      -184.67738507
  PAW double counting   =      1658.33511010    -1398.26267546
  entropy T*S    EENTRO =         0.00000000
  eigenvalues    EBANDS =      -354.41671657
  atomic energy  EATOM  =      2749.86080559
  Solvation  Ediel_sol  =         0.00000000
  ---------------------------------------------------
  free energy    TOTEN  =         5.29733984 eV

  energy without entropy =        5.29733984  energy(sigma->0) =        5.29733984


--------------------------------------------------------------------------------------------------------




--------------------------------------- Iteration      1(   3)  ---------------------------------------


     EDDAV:  cpu time   29.8320: real time   30.1884
 BZINTS: Fermi energy: -1.419372; 60.000000 electrons
         Band energy:-399.044273;  BLOECHL correction: -0.027418
       DOS:  cpu time    0.0080: real time    0.0082
    --------------------------------------------
      LOOP:  cpu time   29.8400: real time   30.1966

 eigenvalue-minimisations  :  1280
 total energy-change (2. order) :-0.4462756E+02  (-0.4373227E+02)
 number of electron      60.0000000 magnetization      12.0600000
 augmentation part       60.0000000 magnetization      12.0600000

 Free energy of the ion-electron system (eV)
  ---------------------------------------------------
  alpha Z        PSCENC =        15.78552958
  Ewald energy   TEWEN  =      7005.02028753
  -Hartree energ DENC   =     -9486.34761587
  -exchange      EXHF   =         0.00000000
  -V(xc)+E(xc)   XCENC  =      -184.67738507
  PAW double counting   =      1658.33511010    -1398.26267546
  entropy T*S    EENTRO =         0.00000000
  eigenvalues    EBANDS =      -399.04427316
  atomic energy  EATOM  =      2749.86080559
  Solvation  Ediel_sol  =         0.00000000
  ---------------------------------------------------
  free energy    TOTEN  =       -39.33021676 eV

  energy without entropy =      -39.33021676  energy(sigma->0) =      -39.33021676


--------------------------------------------------------------------------------------------------------




--------------------------------------- Iteration      1(   4)  ---------------------------------------


     EDDAV:  cpu time   30.0560: real time   30.3647
 BZINTS: Fermi energy: -1.440038; 60.009875 electrons
         Band energy:-400.863050;  BLOECHL correction: -0.027301
       DOS:  cpu time    0.0040: real time    0.0064
    --------------------------------------------
      LOOP:  cpu time   30.0600: real time   30.3711

 eigenvalue-minimisations  :  1296
 total energy-change (2. order) :-0.1818777E+01  (-0.1797391E+01)
 number of electron      60.0000000 magnetization      12.0600000
 augmentation part       60.0000000 magnetization      12.0600000

 Free energy of the ion-electron system (eV)
  ---------------------------------------------------
  alpha Z        PSCENC =        15.78552958
  Ewald energy   TEWEN  =      7005.02028753
  -Hartree energ DENC   =     -9486.34761587
  -exchange      EXHF   =         0.00000000
  -V(xc)+E(xc)   XCENC  =      -184.67738507
  PAW double counting   =      1658.33511010    -1398.26267546
  entropy T*S    EENTRO =         0.00000000
  eigenvalues    EBANDS =      -400.86304978
  atomic energy  EATOM  =      2749.86080559
  Solvation  Ediel_sol  =         0.00000000
  ---------------------------------------------------
  free energy    TOTEN  =       -41.14899337 eV

  energy without entropy =      -41.14899337  energy(sigma->0) =      -41.14899337


--------------------------------------------------------------------------------------------------------




--------------------------------------- Iteration      1(   5)  ---------------------------------------


     EDDAV:  cpu time   33.1320: real time   33.4323
 BZINTS: Fermi energy: -1.440087; 60.012081 electrons
         Band energy:-400.906864;  BLOECHL correction: -0.027262
       DOS:  cpu time    0.0080: real time    0.0071
    CHARGE:  cpu time    2.0680: real time    2.0908
    MIXING:  cpu time    0.0400: real time    0.0414
    --------------------------------------------
      LOOP:  cpu time   35.2480: real time   35.5716

 eigenvalue-minimisations  :  1440
 total energy-change (2. order) :-0.4381448E-01  (-0.4065110E-01)
 number of electron      60.0120815 magnetization      11.6961166
 augmentation part       -2.1677778 magnetization       8.1265053

 Broyden mixing:
  rms(total) = 0.19985E+01    rms(broyden)= 0.19985E+01
  rms(prec ) = 0.21633E+01
  weight for this iteration     100.00

 Free energy of the ion-electron system (eV)
  ---------------------------------------------------
  alpha Z        PSCENC =        15.78552958
  Ewald energy   TEWEN  =      7005.02028753
  -Hartree energ DENC   =     -9486.34761587
  -exchange      EXHF   =         0.00000000
  -V(xc)+E(xc)   XCENC  =      -184.67738507
  PAW double counting   =      1658.33511010    -1398.26267546
  entropy T*S    EENTRO =         0.00000000
  eigenvalues    EBANDS =      -400.90686425
  atomic energy  EATOM  =      2749.86080559
  Solvation  Ediel_sol  =         0.00000000
  ---------------------------------------------------
  free energy    TOTEN  =       -41.19280785 eV

  energy without entropy =      -41.19280785  energy(sigma->0) =      -41.19280785


--------------------------------------------------------------------------------------------------------




--------------------------------------- Iteration      1(   6)  ---------------------------------------


    POTLOK:  cpu time   51.8720: real time   52.2859
    SETDIJ:  cpu time    0.0600: real time    0.0573
     EDDAV:  cpu time   27.0600: real time   27.4109
 BZINTS: Fermi energy: -3.563500; 60.000000 electrons
         Band energy:-523.000196;  BLOECHL correction: -0.026295
       DOS:  cpu time    0.0080: real time    0.0095
    CHARGE:  cpu time    2.0160: real time    2.0295
    MIXING:  cpu time    0.0600: real time    0.0625
    --------------------------------------------
      LOOP:  cpu time   81.0760: real time   81.8557

 eigenvalue-minimisations  :  1152
 total energy-change (2. order) :-0.3043832E+02  (-0.2585542E+02)
 number of electron      60.0000016 magnetization      11.4217565
 augmentation part        6.8751516 magnetization      10.1651911

 Broyden mixing:
  rms(total) = 0.58324E+01    rms(broyden)= 0.58323E+01
  rms(prec ) = 0.62053E+01
  weight for this iteration     100.00

 eigenvalues of (default mixing * dielectric matrix)
  average eigenvalue GAMMA=   0.2178
  0.2178

 Free energy of the ion-electron system (eV)
  ---------------------------------------------------
  alpha Z        PSCENC =        15.78552958
  Ewald energy   TEWEN  =      7005.02028753
  -Hartree energ DENC   =     -9404.07467246
  -exchange      EXHF   =         0.00000000
  -V(xc)+E(xc)   XCENC  =      -183.77893349
  PAW double counting   =      1544.51691417    -1275.96086244
  entropy T*S    EENTRO =         0.00000000
  eigenvalues    EBANDS =      -523.00019594
  atomic energy  EATOM  =      2749.86080559
  Solvation  Ediel_sol  =         0.00000000
  ---------------------------------------------------
  free energy    TOTEN  =       -71.63112747 eV

  energy without entropy =      -71.63112747  energy(sigma->0) =      -71.63112747


--------------------------------------------------------------------------------------------------------




--------------------------------------- Iteration      1(   7)  ---------------------------------------


    POTLOK:  cpu time   51.7320: real time   52.2209
    SETDIJ:  cpu time    0.0600: real time    0.0593
     EDDAV:  cpu time   26.5800: real time   27.2974
 BZINTS: Fermi energy: -2.771793; 60.000000 electrons
         Band energy:-422.530531;  BLOECHL correction: -0.045241
       DOS:  cpu time    0.0040: real time    0.0069
    CHARGE:  cpu time    2.0480: real time    2.0580
    MIXING:  cpu time    0.0640: real time    0.0626
    --------------------------------------------
      LOOP:  cpu time   80.4880: real time   81.7051

 eigenvalue-minimisations  :  1152
 total energy-change (2. order) : 0.3437367E+02  (-0.4982993E+01)
 number of electron      60.0000013 magnetization      11.1197281
 augmentation part        2.2042406 magnetization      10.5539446

 Broyden mixing:
  rms(total) = 0.15506E+01    rms(broyden)= 0.15505E+01
  rms(prec ) = 0.16576E+01
  weight for this iteration     100.00

 eigenvalues of (default mixing * dielectric matrix)
  average eigenvalue GAMMA=   0.3564
  0.3564  0.3564

 Free energy of the ion-electron system (eV)
  ---------------------------------------------------
  alpha Z        PSCENC =        15.78552958
  Ewald energy   TEWEN  =      7005.02028753
  -Hartree energ DENC   =     -9460.02461323
  -exchange      EXHF   =         0.00000000
  -V(xc)+E(xc)   XCENC  =      -185.35829658
  PAW double counting   =      1647.23077968    -1387.24141915
  entropy T*S    EENTRO =         0.00000000
  eigenvalues    EBANDS =      -422.53053113
  atomic energy  EATOM  =      2749.86080559
  Solvation  Ediel_sol  =         0.00000000
  ---------------------------------------------------
  free energy    TOTEN  =       -37.25745770 eV

  energy without entropy =      -37.25745770  energy(sigma->0) =      -37.25745770


--------------------------------------------------------------------------------------------------------




--------------------------------------- Iteration      1(   8)  ---------------------------------------


    POTLOK:  cpu time   51.5720: real time   52.2430
    SETDIJ:  cpu time    0.0480: real time    0.0500
     EDDAV:  cpu time   31.8800: real time   32.7264
 BZINTS: Fermi energy: -2.422556; 60.000000 electrons
         Band energy:-413.545855;  BLOECHL correction: -0.011754
       DOS:  cpu time    0.0040: real time    0.0070
    CHARGE:  cpu time    2.1280: real time    2.1278
    MIXING:  cpu time    0.0600: real time    0.0581
    --------------------------------------------
      LOOP:  cpu time   85.6920: real time   87.2124

 eigenvalue-minimisations  :  1408
 total energy-change (2. order) : 0.4646989E+00  (-0.6112383E+00)
 number of electron      60.0000011 magnetization      10.6702209
 augmentation part        0.5875724 magnetization       8.9837716

 Broyden mixing:
  rms(total) = 0.41373E+00    rms(broyden)= 0.41348E+00
  rms(prec ) = 0.42776E+00
  weight for this iteration     100.00

 eigenvalues of (default mixing * dielectric matrix)
  average eigenvalue GAMMA=   0.4950
  0.6969  0.3940  0.3940

 Free energy of the ion-electron system (eV)
  ---------------------------------------------------
  alpha Z        PSCENC =        15.78552958
  Ewald energy   TEWEN  =      7005.02028753
  -Hartree energ DENC   =     -9468.01864707
  -exchange      EXHF   =         0.00000000
  -V(xc)+E(xc)   XCENC  =      -185.42856765
  PAW double counting   =      1667.29222622    -1407.75853830
  entropy T*S    EENTRO =         0.00000000
  eigenvalues    EBANDS =      -413.54585475
  atomic energy  EATOM  =      2749.86080559
  Solvation  Ediel_sol  =         0.00000000
  ---------------------------------------------------
  free energy    TOTEN  =       -36.79275885 eV

  energy without entropy =      -36.79275885  energy(sigma->0) =      -36.79275885


--------------------------------------------------------------------------------------------------------




--------------------------------------- Iteration      1(   9)  ---------------------------------------


    POTLOK:  cpu time   52.1760: real time   52.3463
    SETDIJ:  cpu time    0.0560: real time    0.0558
     EDDAV:  cpu time   26.2520: real time   27.1518
 BZINTS: Fermi energy: -2.416474; 60.000000 electrons
         Band energy:-413.290368;  BLOECHL correction: -0.011850
       DOS:  cpu time    0.0040: real time    0.0068
    CHARGE:  cpu time    2.0920: real time    2.0964
    MIXING:  cpu time    0.0480: real time    0.0472
    --------------------------------------------
      LOOP:  cpu time   80.6280: real time   81.7042

 eigenvalue-minimisations  :  1136
 total energy-change (2. order) :-0.3670171E+00  (-0.6770463E-01)
 number of electron      60.0000011 magnetization      10.3908198
 augmentation part        0.7276602 magnetization       8.7330227

 Broyden mixing:
  rms(total) = 0.50905E+00    rms(broyden)= 0.50903E+00
  rms(prec ) = 0.53648E+00
  weight for this iteration     100.00

 eigenvalues of (default mixing * dielectric matrix)
  average eigenvalue GAMMA=   0.4767
  0.6000  0.4394  0.4394  0.4281

 Free energy of the ion-electron system (eV)
  ---------------------------------------------------
  alpha Z        PSCENC =        15.78552958
  Ewald energy   TEWEN  =      7005.02028753
  -Hartree energ DENC   =     -9468.17025436
  -exchange      EXHF   =         0.00000000
  -V(xc)+E(xc)   XCENC  =      -185.01876051
  PAW double counting   =      1677.56565025    -1418.91266607
  entropy T*S    EENTRO =         0.00000000
  eigenvalues    EBANDS =      -413.29036797
  atomic energy  EATOM  =      2749.86080559
  Solvation  Ediel_sol  =         0.00000000
  ---------------------------------------------------
  free energy    TOTEN  =       -37.15977596 eV

  energy without entropy =      -37.15977596  energy(sigma->0) =      -37.15977596


--------------------------------------------------------------------------------------------------------




--------------------------------------- Iteration      1(  10)  ---------------------------------------


    POTLOK:  cpu time   50.7440: real time   52.0713
    SETDIJ:  cpu time    0.0920: real time    0.0906
     EDDAV:  cpu time   24.3680: real time   25.3837
 BZINTS: Fermi energy: -2.502753; 60.000000 electrons
         Band energy:-413.303613;  BLOECHL correction: -0.022463
       DOS:  cpu time    0.0040: real time    0.0067
    CHARGE:  cpu time    2.1040: real time    2.1268
    MIXING:  cpu time    0.0600: real time    0.0594
    --------------------------------------------
      LOOP:  cpu time   77.3720: real time   79.7385

 eigenvalue-minimisations  :  1056
 total energy-change (2. order) :-0.7210513E+00  (-0.6230521E+00)
 number of electron      60.0000012 magnetization       9.4854674
 augmentation part        1.0257295 magnetization       8.5519286

 Broyden mixing:
  rms(total) = 0.19331E+01    rms(broyden)= 0.19328E+01
  rms(prec ) = 0.20717E+01
  weight for this iteration     100.00

 eigenvalues of (default mixing * dielectric matrix)
  average eigenvalue GAMMA=   0.6242
  1.5592  0.7129  0.3973  0.3973  0.0541

 Free energy of the ion-electron system (eV)
  ---------------------------------------------------
  alpha Z        PSCENC =        15.78552958
  Ewald energy   TEWEN  =      7005.02028753
  -Hartree energ DENC   =     -9468.69768386
  -exchange      EXHF   =         0.00000000
  -V(xc)+E(xc)   XCENC  =      -184.90972171
  PAW double counting   =      1682.53874700    -1424.17517851
  entropy T*S    EENTRO =         0.00000000
  eigenvalues    EBANDS =      -413.30361286
  atomic energy  EATOM  =      2749.86080559
  Solvation  Ediel_sol  =         0.00000000
  ---------------------------------------------------
  free energy    TOTEN  =       -37.88082724 eV

  energy without entropy =      -37.88082724  energy(sigma->0) =      -37.88082724


--------------------------------------------------------------------------------------------------------




--------------------------------------- Iteration      1(  11)  ---------------------------------------


    POTLOK:  cpu time   51.6120: real time   52.0654
    SETDIJ:  cpu time    0.0480: real time    0.0510
     EDDAV:  cpu time   31.8120: real time   32.3505
 BZINTS: Fermi energy: -2.431566; 60.000000 electrons
         Band energy:-409.566740;  BLOECHL correction: -0.025839
       DOS:  cpu time    0.0040: real time    0.0066
    CHARGE:  cpu time    2.0200: real time    2.0876
    MIXING:  cpu time    0.0440: real time    0.0447
    --------------------------------------------
      LOOP:  cpu time   85.5400: real time   86.6058

 eigenvalue-minimisations  :  1408
 total energy-change (2. order) : 0.4638888E+00  (-0.1805780E+00)
 number of electron      60.0000012 magnetization       9.0362813
 augmentation part        1.1279808 magnetization       8.0674190

 Broyden mixing:
  rms(total) = 0.99064E+00    rms(broyden)= 0.99045E+00
  rms(prec ) = 0.10525E+01
  weight for this iteration     100.00

 eigenvalues of (default mixing * dielectric matrix)
  average eigenvalue GAMMA=   0.6585
  1.9322  0.8140  0.3827  0.3827  0.3780  0.0615

 Free energy of the ion-electron system (eV)
  ---------------------------------------------------
  alpha Z        PSCENC =        15.78552958
  Ewald energy   TEWEN  =      7005.02028753
  -Hartree energ DENC   =     -9471.42705870
  -exchange      EXHF   =         0.00000000
  -V(xc)+E(xc)   XCENC  =      -184.65461901
  PAW double counting   =      1700.20339417    -1442.63853733
  entropy T*S    EENTRO =         0.00000000
  eigenvalues    EBANDS =      -409.56674027
  atomic energy  EATOM  =      2749.86080559
  Solvation  Ediel_sol  =         0.00000000
  ---------------------------------------------------
  free energy    TOTEN  =       -37.41693845 eV

  energy without entropy =      -37.41693845  energy(sigma->0) =      -37.41693845


--------------------------------------------------------------------------------------------------------




--------------------------------------- Iteration      1(  12)  ---------------------------------------


    POTLOK:  cpu time   50.8400: real time   50.9023
    SETDIJ:  cpu time    0.0480: real time    0.0512
     EDDAV:  cpu time   32.7560: real time   33.0797
 BZINTS: Fermi energy: -2.438052; 60.000000 electrons
         Band energy:-409.116546;  BLOECHL correction: -0.027529
       DOS:  cpu time    0.0040: real time    0.0041
    CHARGE:  cpu time    2.0440: real time    2.0473
    MIXING:  cpu time    0.0440: real time    0.0437
    --------------------------------------------
      LOOP:  cpu time   85.7360: real time   86.1282

 eigenvalue-minimisations  :  1440
 total energy-change (2. order) :-0.1775449E+00  (-0.1000456E+00)
 number of electron      60.0000012 magnetization       8.5762412
 augmentation part        1.3236740 magnetization       7.7872215

 Broyden mixing:
  rms(total) = 0.94165E+00    rms(broyden)= 0.94152E+00
  rms(prec ) = 0.98941E+00
  weight for this iteration     100.00

 eigenvalues of (default mixing * dielectric matrix)
  average eigenvalue GAMMA=   0.7366
  2.5617  0.8055  0.4597  0.4597  0.4039  0.4039  0.0616

 Free energy of the ion-electron system (eV)
  ---------------------------------------------------
  alpha Z        PSCENC =        15.78552958
  Ewald energy   TEWEN  =      7005.02028753
  -Hartree energ DENC   =     -9472.02903018
  -exchange      EXHF   =         0.00000000
  -V(xc)+E(xc)   XCENC  =      -184.52675824
  PAW double counting   =      1702.63115972    -1445.21993108
  entropy T*S    EENTRO =         0.00000000
  eigenvalues    EBANDS =      -409.11654622
  atomic energy  EATOM  =      2749.86080559
  Solvation  Ediel_sol  =         0.00000000
  ---------------------------------------------------
  free energy    TOTEN  =       -37.59448331 eV

  energy without entropy =      -37.59448331  energy(sigma->0) =      -37.59448331


--------------------------------------------------------------------------------------------------------




--------------------------------------- Iteration      1(  13)  ---------------------------------------


    POTLOK:  cpu time   50.8120: real time   50.9094
    SETDIJ:  cpu time    0.0520: real time    0.0540
     EDDAV:  cpu time   27.5520: real time   27.6741
 BZINTS: Fermi energy: -2.402399; 60.000000 electrons
         Band energy:-407.339059;  BLOECHL correction: -0.026461
       DOS:  cpu time    0.0080: real time    0.0069
    CHARGE:  cpu time    2.0960: real time    2.0992
    MIXING:  cpu time    0.0440: real time    0.0448
    --------------------------------------------
      LOOP:  cpu time   80.5640: real time   80.7883

 eigenvalue-minimisations  :  1184
 total energy-change (2. order) :-0.5231365E-01  (-0.1075663E-01)
 number of electron      60.0000012 magnetization       8.0078734
 augmentation part        1.2512366 magnetization       7.2840071

 Broyden mixing:
  rms(total) = 0.88919E+00    rms(broyden)= 0.88917E+00
  rms(prec ) = 0.93729E+00
  weight for this iteration     100.00

 eigenvalues of (default mixing * dielectric matrix)
  average eigenvalue GAMMA=   0.8159
  2.9814  0.7088  0.7088  0.7961  0.3993  0.3993  0.4721  0.0616

 Free energy of the ion-electron system (eV)
  ---------------------------------------------------
  alpha Z        PSCENC =        15.78552958
  Ewald energy   TEWEN  =      7005.02028753
  -Hartree energ DENC   =     -9473.83302336
  -exchange      EXHF   =         0.00000000
  -V(xc)+E(xc)   XCENC  =      -184.56635874
  PAW double counting   =      1706.56215023    -1449.13712897
  entropy T*S    EENTRO =         0.00000000
  eigenvalues    EBANDS =      -407.33905881
  atomic energy  EATOM  =      2749.86080559
  Solvation  Ediel_sol  =         0.00000000
  ---------------------------------------------------
  free energy    TOTEN  =       -37.64679695 eV

  energy without entropy =      -37.64679695  energy(sigma->0) =      -37.64679695


--------------------------------------------------------------------------------------------------------




--------------------------------------- Iteration      1(  14)  ---------------------------------------


    POTLOK:  cpu time   50.5480: real time   50.8844
    SETDIJ:  cpu time    0.0480: real time    0.0501
     EDDAV:  cpu time   27.8200: real time   28.0113
 BZINTS: Fermi energy: -2.332534; 60.000000 electrons
         Band energy:-404.478111;  BLOECHL correction: -0.027729
       DOS:  cpu time    0.0040: real time    0.0072
    CHARGE:  cpu time    2.0480: real time    2.0457
    MIXING:  cpu time    0.0440: real time    0.0458
    --------------------------------------------
      LOOP:  cpu time   80.5120: real time   81.0446

 eigenvalue-minimisations  :  1200
 total energy-change (2. order) : 0.7360450E-01  (-0.2794078E-01)
 number of electron      60.0000012 magnetization       7.3842169
 augmentation part        1.0215051 magnetization       6.6953724

 Broyden mixing:
  rms(total) = 0.63736E+00    rms(broyden)= 0.63735E+00
  rms(prec ) = 0.66760E+00
  weight for this iteration     100.00

 eigenvalues of (default mixing * dielectric matrix)
  average eigenvalue GAMMA=   0.8319
  3.2423  0.7997  0.7997  0.7860  0.4154  0.4154  0.4834  0.4834  0.0616

 Free energy of the ion-electron system (eV)
  ---------------------------------------------------
  alpha Z        PSCENC =        15.78552958
  Ewald energy   TEWEN  =      7005.02028753
  -Hartree energ DENC   =     -9476.58582114
  -exchange      EXHF   =         0.00000000
  -V(xc)+E(xc)   XCENC  =      -184.72745272
  PAW double counting   =      1709.75194936    -1452.20038013
  entropy T*S    EENTRO =         0.00000000
  eigenvalues    EBANDS =      -404.47811053
  atomic energy  EATOM  =      2749.86080559
  Solvation  Ediel_sol  =         0.00000000
  ---------------------------------------------------
  free energy    TOTEN  =       -37.57319245 eV

  energy without entropy =      -37.57319245  energy(sigma->0) =      -37.57319245


--------------------------------------------------------------------------------------------------------




--------------------------------------- Iteration      1(  15)  ---------------------------------------


    POTLOK:  cpu time   50.7880: real time   51.0218
    SETDIJ:  cpu time    0.0480: real time    0.0510
     EDDAV:  cpu time   33.2040: real time   33.3874
 BZINTS: Fermi energy: -2.286225; 60.000000 electrons
         Band energy:-402.632777;  BLOECHL correction: -0.024158
       DOS:  cpu time    0.0040: real time    0.0068
    CHARGE:  cpu time    2.0560: real time    2.0591
    MIXING:  cpu time    0.0560: real time    0.0546
    --------------------------------------------
      LOOP:  cpu time   86.1560: real time   86.5805

 eigenvalue-minimisations  :  1456
 total energy-change (2. order) :-0.6592392E-01  (-0.2610845E-01)
 number of electron      60.0000012 magnetization       6.2626726
 augmentation part        0.8822232 magnetization       5.6260427

 Broyden mixing:
  rms(total) = 0.64573E+00    rms(broyden)= 0.64571E+00
  rms(prec ) = 0.68594E+00
  weight for this iteration     100.00

 eigenvalues of (default mixing * dielectric matrix)
  average eigenvalue GAMMA=   0.9437
  3.8306  1.1368  1.1368  0.7873  0.6053  0.6053  0.4062  0.4062  0.4607  0.0616

 Free energy of the ion-electron system (eV)
  ---------------------------------------------------
  alpha Z        PSCENC =        15.78552958
  Ewald energy   TEWEN  =      7005.02028753
  -Hartree energ DENC   =     -9478.54474448
  -exchange      EXHF   =         0.00000000
  -V(xc)+E(xc)   XCENC  =      -184.86166117
  PAW double counting   =      1710.46525656    -1452.73181273
  entropy T*S    EENTRO =         0.00000000
  eigenvalues    EBANDS =      -402.63277725
  atomic energy  EATOM  =      2749.86080559
  Solvation  Ediel_sol  =         0.00000000
  ---------------------------------------------------
  free energy    TOTEN  =       -37.63911637 eV

  energy without entropy =      -37.63911637  energy(sigma->0) =      -37.63911637


--------------------------------------------------------------------------------------------------------




--------------------------------------- Iteration      1(  16)  ---------------------------------------


    POTLOK:  cpu time   50.6720: real time   51.0766
    SETDIJ:  cpu time    0.0520: real time    0.0504
     EDDAV:  cpu time   26.8680: real time   27.0107
 BZINTS: Fermi energy: -2.174408; 60.000000 electrons
         Band energy:-398.662813;  BLOECHL correction: -0.024362
       DOS:  cpu time    0.0080: real time    0.0069
    CHARGE:  cpu time    2.0400: real time    2.0741
    MIXING:  cpu time    0.0440: real time    0.0475
    --------------------------------------------
      LOOP:  cpu time   79.6840: real time   80.2663

 eigenvalue-minimisations  :  1152
 total energy-change (2. order) :-0.6587586E-02  (-0.3770569E-01)
 number of electron      60.0000011 magnetization       5.4989322
 augmentation part        0.5858921 magnetization       4.8841627

 Broyden mixing:
  rms(total) = 0.24912E+00    rms(broyden)= 0.24909E+00
  rms(prec ) = 0.25711E+00
  weight for this iteration     100.00

 eigenvalues of (default mixing * dielectric matrix)
  average eigenvalue GAMMA=   1.0289
  4.5645  1.4526  1.4526  0.6069  0.6069  0.6427  0.6427  0.4072  0.4072  0.4734
  0.0616

 Free energy of the ion-electron system (eV)
  ---------------------------------------------------
  alpha Z        PSCENC =        15.78552958
  Ewald energy   TEWEN  =      7005.02028753
  -Hartree energ DENC   =     -9482.55112800
  -exchange      EXHF   =         0.00000000
  -V(xc)+E(xc)   XCENC  =      -185.09470079
  PAW double counting   =      1711.54501002    -1453.54869514
  entropy T*S    EENTRO =         0.00000000
  eigenvalues    EBANDS =      -398.66281276
  atomic energy  EATOM  =      2749.86080559
  Solvation  Ediel_sol  =         0.00000000
  ---------------------------------------------------
  free energy    TOTEN  =       -37.64570396 eV

  energy without entropy =      -37.64570396  energy(sigma->0) =      -37.64570396


--------------------------------------------------------------------------------------------------------




--------------------------------------- Iteration      1(  17)  ---------------------------------------


    POTLOK:  cpu time   50.7640: real time   50.9188
    SETDIJ:  cpu time    0.0520: real time    0.0493
     EDDAV:  cpu time   27.5680: real time   27.6713
 BZINTS: Fermi energy: -2.109044; 60.000000 electrons
         Band energy:-396.513132;  BLOECHL correction: -0.020255
       DOS:  cpu time    0.0080: real time    0.0069
    CHARGE:  cpu time    2.0480: real time    2.0477
    MIXING:  cpu time    0.0480: real time    0.0484
    --------------------------------------------
      LOOP:  cpu time   80.4880: real time   80.7424

 eigenvalue-minimisations  :  1184
 total energy-change (2. order) :-0.8395157E-01  (-0.2892969E-01)
 number of electron      60.0000011 magnetization       4.4704256
 augmentation part        0.4501376 magnetization       3.8615267

 Broyden mixing:
  rms(total) = 0.32771E+00    rms(broyden)= 0.32765E+00
  rms(prec ) = 0.34910E+00
  weight for this iteration     100.00

 eigenvalues of (default mixing * dielectric matrix)
  average eigenvalue GAMMA=   1.1630
  5.6148  1.7502  1.7502  0.6353  0.6353  0.8031  0.8031  0.4068  0.4068  0.6068
  0.4825  0.0616

 Free energy of the ion-electron system (eV)
  ---------------------------------------------------
  alpha Z        PSCENC =        15.78552958
  Ewald energy   TEWEN  =      7005.02028753
  -Hartree energ DENC   =     -9484.71674139
  -exchange      EXHF   =         0.00000000
  -V(xc)+E(xc)   XCENC  =      -185.32366445
  PAW double counting   =      1712.44157477    -1454.28431503
  entropy T*S    EENTRO =         0.00000000
  eigenvalues    EBANDS =      -396.51313212
  atomic energy  EATOM  =      2749.86080559
  Solvation  Ediel_sol  =         0.00000000
  ---------------------------------------------------
  free energy    TOTEN  =       -37.72965553 eV

  energy without entropy =      -37.72965553  energy(sigma->0) =      -37.72965553


--------------------------------------------------------------------------------------------------------




--------------------------------------- Iteration      1(  18)  ---------------------------------------


    POTLOK:  cpu time   50.7680: real time   50.9386
    SETDIJ:  cpu time    0.0480: real time    0.0503
     EDDAV:  cpu time   26.0120: real time   26.2595
 BZINTS: Fermi energy: -2.064253; 60.000000 electrons
         Band energy:-394.536314;  BLOECHL correction: -0.014301
       DOS:  cpu time    0.0040: real time    0.0070
    CHARGE:  cpu time    2.0400: real time    2.0709
    MIXING:  cpu time    0.0480: real time    0.0492
    --------------------------------------------
      LOOP:  cpu time   78.9200: real time   79.3755

 eigenvalue-minimisations  :  1120
 total energy-change (2. order) :-0.8259164E-01  (-0.9534201E-02)
 number of electron      60.0000011 magnetization       3.9539034
 augmentation part        0.4347024 magnetization       3.4795110

 Broyden mixing:
  rms(total) = 0.23099E+00    rms(broyden)= 0.23097E+00
  rms(prec ) = 0.24765E+00
  weight for this iteration     100.00

 eigenvalues of (default mixing * dielectric matrix)
  average eigenvalue GAMMA=   1.3194
  7.7353  2.0247  1.6548  0.6553  0.6553  0.8508  0.8105  0.8105  0.4067  0.4067
  0.5993  0.4800  0.0616

 Free energy of the ion-electron system (eV)
  ---------------------------------------------------
  alpha Z        PSCENC =        15.78552958
  Ewald energy   TEWEN  =      7005.02028753
  -Hartree energ DENC   =     -9486.61691238
  -exchange      EXHF   =         0.00000000
  -V(xc)+E(xc)   XCENC  =      -185.76631727
  PAW double counting   =      1711.10567173    -1452.66499786
  entropy T*S    EENTRO =         0.00000000
  eigenvalues    EBANDS =      -394.53631409
  atomic energy  EATOM  =      2749.86080559
  Solvation  Ediel_sol  =         0.00000000
  ---------------------------------------------------
  free energy    TOTEN  =       -37.81224716 eV

  energy without entropy =      -37.81224716  energy(sigma->0) =      -37.81224716


--------------------------------------------------------------------------------------------------------




--------------------------------------- Iteration      1(  19)  ---------------------------------------


    POTLOK:  cpu time   50.8640: real time   51.0183
    SETDIJ:  cpu time    0.0480: real time    0.0517
     EDDAV:  cpu time   26.3960: real time   26.6234
 BZINTS: Fermi energy: -2.062905; 60.000000 electrons
         Band energy:-393.601399;  BLOECHL correction: -0.025575
       DOS:  cpu time    0.0040: real time    0.0068
    CHARGE:  cpu time    2.0320: real time    2.0295
    MIXING:  cpu time    0.0480: real time    0.0504
    --------------------------------------------
      LOOP:  cpu time   79.3920: real time   79.7802

 eigenvalue-minimisations  :  1136
 total energy-change (2. order) :-0.2611107E-01  (-0.5266019E-02)
 number of electron      60.0000011 magnetization       3.5519409
 augmentation part        0.4500868 magnetization       3.1658963

 Broyden mixing:
  rms(total) = 0.10132E+00    rms(broyden)= 0.10129E+00
  rms(prec ) = 0.10625E+00
  weight for this iteration     100.00

 eigenvalues of (default mixing * dielectric matrix)
  average eigenvalue GAMMA=   1.5635
 10.8956  2.4523  1.4361  1.4361  0.8580  0.8580  0.6410  0.6410  0.4068  0.4068
  0.6582  0.6582  0.4789  0.0616

 Free energy of the ion-electron system (eV)
  ---------------------------------------------------
  alpha Z        PSCENC =        15.78552958
  Ewald energy   TEWEN  =      7005.02028753
  -Hartree energ DENC   =     -9487.49840919
  -exchange      EXHF   =         0.00000000
  -V(xc)+E(xc)   XCENC  =      -185.88688453
  PAW double counting   =      1710.47909750    -1451.99738605
  entropy T*S    EENTRO =         0.00000000
  eigenvalues    EBANDS =      -393.60139867
  atomic energy  EATOM  =      2749.86080559
  Solvation  Ediel_sol  =         0.00000000
  ---------------------------------------------------
  free energy    TOTEN  =       -37.83835824 eV

  energy without entropy =      -37.83835824  energy(sigma->0) =      -37.83835824


--------------------------------------------------------------------------------------------------------




--------------------------------------- Iteration      1(  20)  ---------------------------------------


    POTLOK:  cpu time   50.9320: real time   50.9862
    SETDIJ:  cpu time    0.0480: real time    0.0511
     EDDAV:  cpu time   26.7760: real time   26.9680
 BZINTS: Fermi energy: -2.032223; 60.000000 electrons
         Band energy:-392.317096;  BLOECHL correction: -0.028222
       DOS:  cpu time    0.0080: real time    0.0073
    CHARGE:  cpu time    2.0360: real time    2.0720
    MIXING:  cpu time    0.0520: real time    0.0516
    --------------------------------------------
      LOOP:  cpu time   79.8520: real time   80.1362

 eigenvalue-minimisations  :  1152
 total energy-change (2. order) :-0.1029630E-01  (-0.1335802E-02)
 number of electron      60.0000011 magnetization       3.3796729
 augmentation part        0.4133120 magnetization       3.0233153

 Broyden mixing:
  rms(total) = 0.48610E-01    rms(broyden)= 0.48590E-01
  rms(prec ) = 0.50844E-01
  weight for this iteration     100.00

 eigenvalues of (default mixing * dielectric matrix)
  average eigenvalue GAMMA=   1.6776
 12.8734  2.6327  1.5222  1.5222  1.0072  0.8526  0.8526  0.6401  0.6401  0.4068
  0.4068  0.6335  0.6335  0.4786  0.0616

 Free energy of the ion-electron system (eV)
  ---------------------------------------------------
  alpha Z        PSCENC =        15.78552958
  Ewald energy   TEWEN  =      7005.02028753
  -Hartree energ DENC   =     -9488.71922764
  -exchange      EXHF   =         0.00000000
  -V(xc)+E(xc)   XCENC  =      -185.94381858
  PAW double counting   =      1711.17385203    -1452.70898728
  entropy T*S    EENTRO =         0.00000000
  eigenvalues    EBANDS =      -392.31709575
  atomic energy  EATOM  =      2749.86080559
  Solvation  Ediel_sol  =         0.00000000
  ---------------------------------------------------
  free energy    TOTEN  =       -37.84865453 eV

  energy without entropy =      -37.84865453  energy(sigma->0) =      -37.84865453


--------------------------------------------------------------------------------------------------------




--------------------------------------- Iteration      1(  21)  ---------------------------------------


    POTLOK:  cpu time   50.7280: real time   50.9648
    SETDIJ:  cpu time    0.0520: real time    0.0509
     EDDAV:  cpu time   27.7360: real time   28.0161
 BZINTS: Fermi energy: -2.017949; 60.000000 electrons
         Band energy:-391.678485;  BLOECHL correction: -0.029352
       DOS:  cpu time    0.0040: real time    0.0067
    CHARGE:  cpu time    2.0240: real time    2.0558
    MIXING:  cpu time    0.0520: real time    0.0529
    --------------------------------------------
      LOOP:  cpu time   80.5960: real time   81.1472

 eigenvalue-minimisations  :  1200
 total energy-change (2. order) :-0.4375077E-02  (-0.1094115E-02)
 number of electron      60.0000011 magnetization       3.3612216
 augmentation part        0.4050078 magnetization       3.0159969

 Broyden mixing:
  rms(total) = 0.29498E-01    rms(broyden)= 0.29472E-01
  rms(prec ) = 0.32100E-01
  weight for this iteration     100.00

 eigenvalues of (default mixing * dielectric matrix)
  average eigenvalue GAMMA=   1.6952
 13.4764  2.7477  1.9156  1.3256  1.3256  0.8647  0.8647  0.6413  0.6413  0.4068
  0.4068  0.6806  0.6806  0.4782  0.6056  0.0616

 Free energy of the ion-electron system (eV)
  ---------------------------------------------------
  alpha Z        PSCENC =        15.78552958
  Ewald energy   TEWEN  =      7005.02028753
  -Hartree energ DENC   =     -9489.28478575
  -exchange      EXHF   =         0.00000000
  -V(xc)+E(xc)   XCENC  =      -185.99691291
  PAW double counting   =      1711.86764071    -1453.42710916
  entropy T*S    EENTRO =         0.00000000
  eigenvalues    EBANDS =      -391.67848520
  atomic energy  EATOM  =      2749.86080559
  Solvation  Ediel_sol  =         0.00000000
  ---------------------------------------------------
  free energy    TOTEN  =       -37.85302961 eV

  energy without entropy =      -37.85302961  energy(sigma->0) =      -37.85302961


--------------------------------------------------------------------------------------------------------




--------------------------------------- Iteration      1(  22)  ---------------------------------------


    POTLOK:  cpu time   50.8280: real time   51.1107
    SETDIJ:  cpu time    0.0520: real time    0.0514
     EDDAV:  cpu time   26.5760: real time   26.9038
 BZINTS: Fermi energy: -2.018276; 60.000000 electrons
         Band energy:-391.544053;  BLOECHL correction: -0.030084
       DOS:  cpu time    0.0040: real time    0.0069
    CHARGE:  cpu time    1.9880: real time    2.0597
    MIXING:  cpu time    0.0520: real time    0.0547
    --------------------------------------------
      LOOP:  cpu time   79.5000: real time   80.1873

 eigenvalue-minimisations  :  1152
 total energy-change (2. order) :-0.1589824E-02  (-0.2246155E-03)
 number of electron      60.0000011 magnetization       3.3261858
 augmentation part        0.4154230 magnetization       2.9898940

 Broyden mixing:
  rms(total) = 0.13186E-01    rms(broyden)= 0.13182E-01
  rms(prec ) = 0.14130E-01
  weight for this iteration     100.00

 eigenvalues of (default mixing * dielectric matrix)
  average eigenvalue GAMMA=   1.7064
 13.6748  2.6569  2.6569  1.3547  1.3547  0.6408  0.6408  0.9061  0.9061  0.0616
  0.4068  0.4068  0.7982  0.7982  0.4783  0.6338  0.6338

 Free energy of the ion-electron system (eV)
  ---------------------------------------------------
  alpha Z        PSCENC =        15.78552958
  Ewald energy   TEWEN  =      7005.02028753
  -Hartree energ DENC   =     -9489.38462328
  -exchange      EXHF   =         0.00000000
  -V(xc)+E(xc)   XCENC  =      -186.02166937
[...]
     34      -0.2748      0.00000
     35      -0.0652      0.00000
     36       0.2845      0.00000
     37       0.4926      0.00000
     38       1.5253      0.00000
     39       1.5418      0.00000
     40       2.1023      0.00000
     41       2.2977      0.00000
     42       2.3630      0.00000
     43       2.7592      0.00000
     44       3.0073      0.00000
     45       3.0847      0.00000
     46       3.5242      0.00000
     47       3.7688      0.00000
     48       4.0472      0.00000

 k-point     5 :      -0.4000    0.2000    0.0000
  band No.  band energies     occupation 
      1     -13.9493      1.00000
      2     -13.5560      1.00000
      3     -13.1713      1.00000
      4     -13.0025      1.00000
      5     -12.7522      1.00000
      6     -12.6156      1.00000
      7      -9.8715      1.00000
      8      -8.2453      1.00000
      9      -6.4662      1.00000
     10      -5.9845      1.00000
     11      -5.8935      1.00000
     12      -5.4153      1.00000
     13      -5.1119      1.00000
     14      -4.8226      1.00000
     15      -4.6060      1.00000
     16      -4.3089      1.00000
     17      -4.3008      1.00000
     18      -4.1071      1.00000
     19      -4.0336      1.00000
     20      -3.7909      1.00000
     21      -3.6878      1.00000
     22      -3.1436      1.00000
     23      -3.0433      1.00000
     24      -2.8308      1.00000
     25      -2.6302      1.00000
     26      -2.2714      1.00000
     27      -1.9771      1.00000
     28      -1.8821      1.00000
     29      -1.7692      1.00000
     30      -1.4407      0.00000
     31      -1.4159      0.00000
     32      -0.7133      0.00000
     33      -0.5203      0.00000
     34      -0.3800      0.00000
     35      -0.1089      0.00000
     36      -0.0059      0.00000
     37       0.4827      0.00000
     38       1.0188      0.00000
     39       1.4114      0.00000
     40       1.8160      0.00000
     41       2.0378      0.00000
     42       2.2779      0.00000
     43       3.1046      0.00000
     44       3.2395      0.00000
     45       3.2616      0.00000
     46       3.4446      0.00000
     47       3.5184      0.00000
     48       4.1903      0.00000


--------------------------------------------------------------------------------------------------------


 soft charge-density along one line, spin component           1
         0         1         2         3         4         5         6         7         8         9
 total charge-density along one line

 soft charge-density along one line, spin component           2
         0         1         2         3         4         5         6         7         8         9
 total charge-density along one line

 pseudopotential strength for first ion, spin component:           1
 -9.773  -0.101   0.000   0.004   0.000   0.555   0.029  -0.000
 -0.101 -10.020   0.000  -0.000   0.004   0.029   0.628  -0.000
  0.000   0.000 -10.527   0.000   0.000  -0.000  -0.000   0.774
  0.004  -0.000   0.000 -10.020   0.101  -0.001   0.000  -0.000
  0.000   0.004   0.000   0.101  -9.773  -0.000  -0.001  -0.000
  0.555   0.029  -0.000  -0.001  -0.000   0.576  -0.009   0.000
  0.029   0.628  -0.000   0.000  -0.001  -0.009   0.554   0.000
 -0.000  -0.000   0.774  -0.000  -0.000   0.000   0.000   0.513
 -0.001   0.000  -0.000   0.628  -0.029   0.000  -0.000   0.000
 -0.000  -0.001  -0.000  -0.029   0.555   0.000   0.000   0.000
  0.000  -0.000   0.085  -0.000   0.000  -0.000  -0.000  -0.021
 -0.000   0.000  -0.009   0.000  -0.000   0.000  -0.000   0.002
 -0.000  -0.001   0.000  -0.000   0.001   0.000   0.000  -0.000
 -0.000  -0.000  -0.000  -0.000   0.000  -0.000   0.000   0.000
  0.001  -0.000   0.000  -0.001   0.000   0.000  -0.000  -0.000
  0.000   0.000  -0.000   0.000  -0.001  -0.000  -0.000   0.000
  0.000   0.000  -0.000   0.000  -0.000  -0.000  -0.000   0.000
 -0.001   0.000  -0.000   0.000  -0.000   0.000  -0.000   0.000
 pseudopotential strength for first ion, spin component:           2
 -9.124  -0.024  -0.000  -0.001   0.000   0.361   0.008   0.000
 -0.024  -9.425   0.000   0.000  -0.001   0.008   0.444  -0.000
 -0.000   0.000  -9.043   0.000   0.000   0.000  -0.000   0.341
 -0.001   0.000   0.000  -9.425   0.024   0.000  -0.000  -0.000
  0.000  -0.001   0.000   0.024  -9.124  -0.000   0.000  -0.000
  0.361   0.008   0.000   0.000  -0.000   0.634  -0.003  -0.000
  0.008   0.444  -0.000  -0.000   0.000  -0.003   0.611   0.000
  0.000  -0.000   0.341  -0.000  -0.000  -0.000   0.000   0.636
  0.000  -0.000  -0.000   0.444  -0.008  -0.000   0.000   0.000
 -0.000   0.000  -0.000  -0.008   0.361   0.000  -0.000   0.000
 -0.000  -0.000   0.004  -0.000   0.000  -0.000  -0.000  -0.005
  0.000   0.000  -0.002   0.000  -0.000  -0.000  -0.000   0.001
 -0.000  -0.001   0.000  -0.000   0.002   0.000   0.000  -0.000
 -0.000  -0.000  -0.000  -0.000  -0.000  -0.000   0.000   0.000
  0.002  -0.000   0.000  -0.001   0.000  -0.000  -0.000  -0.000
  0.000   0.000  -0.000   0.000  -0.002  -0.000  -0.000   0.000
  0.000   0.000  -0.000   0.000   0.000  -0.000  -0.000   0.000
 -0.002   0.000  -0.000   0.000  -0.000   0.000  -0.000   0.000
 total augmentation occupancy for first ion, spin component:           1
  1.524  -0.339   0.000   0.010  -0.000   0.120   0.164   0.000  -0.003   0.000   0.000   0.000  -0.005   0.000   0.007   0.000
 -0.339   1.442  -0.000  -0.000   0.010   0.126   0.184   0.000   0.000  -0.002   0.000   0.000  -0.005   0.000   0.006   0.001
  0.000  -0.000   1.100  -0.000  -0.000   0.000   0.000  -0.054   0.000  -0.000   0.025   0.060  -0.000   0.001   0.000  -0.000
  0.010  -0.000  -0.000   1.442   0.339  -0.002  -0.000   0.000   0.184  -0.126   0.000   0.000  -0.006  -0.000  -0.005   0.000
 -0.000   0.010  -0.000   0.339   1.524  -0.000  -0.003  -0.000  -0.164   0.120  -0.000  -0.000   0.007  -0.000   0.005   0.001
  0.120   0.126   0.000  -0.002  -0.000   0.081   0.044   0.000  -0.000  -0.000   0.000  -0.000  -0.001   0.000   0.013   0.000
  0.164   0.184   0.000  -0.000  -0.003   0.044   0.126   0.000  -0.000  -0.000  -0.000   0.000  -0.000   0.000  -0.003   0.000
  0.000   0.000  -0.054   0.000  -0.000   0.000   0.000   0.079   0.000  -0.000   0.022  -0.015  -0.000   0.001   0.000   0.000
 -0.003   0.000   0.000   0.184  -0.164  -0.000  -0.000   0.000   0.126  -0.044  -0.000   0.000   0.003   0.000  -0.000  -0.000
  0.000  -0.002  -0.000  -0.126   0.120  -0.000  -0.000  -0.000  -0.044   0.081  -0.000   0.000   0.013  -0.000   0.001  -0.002
  0.000   0.000   0.025   0.000  -0.000   0.000  -0.000   0.022  -0.000  -0.000   1.047  -0.224  -0.000  -0.005   0.000   0.000
  0.000   0.000   0.060   0.000  -0.000  -0.000   0.000  -0.015  -0.000   0.000  -0.224   0.093   0.000   0.000   0.000   0.000
 -0.005  -0.005  -0.000  -0.006   0.007  -0.001  -0.000  -0.000   0.003   0.013  -0.000   0.000   0.167  -0.000  -0.000  -0.009
  0.000   0.000   0.001  -0.000  -0.000   0.000  -0.000   0.001   0.000  -0.000  -0.005   0.000  -0.000   0.172  -0.000   0.000
  0.007   0.006   0.000  -0.005   0.005   0.013  -0.003   0.000  -0.000   0.001   0.000   0.000  -0.000  -0.000   0.167   0.000
  0.000   0.001  -0.000   0.000   0.001   0.000   0.000   0.000  -0.000  -0.002   0.000   0.000  -0.009   0.000   0.000   0.001
  0.000  -0.000   0.000  -0.000  -0.000  -0.000   0.000  -0.000  -0.000   0.000   0.000  -0.000   0.000  -0.010   0.000  -0.000
  0.001  -0.000   0.000   0.001  -0.000  -0.002   0.000  -0.000   0.000  -0.000   0.000   0.000  -0.000   0.000  -0.009  -0.000
 total augmentation occupancy for first ion, spin component:           2
  0.114   0.058   0.000  -0.004  -0.000  -0.055  -0.002  -0.000   0.001  -0.000  -0.000   0.000   0.001  -0.000   0.005   0.000
  0.058   0.072   0.000  -0.000  -0.004   0.009  -0.051   0.000  -0.000   0.000   0.000   0.000  -0.000   0.000  -0.001  -0.000
  0.000   0.000   0.828   0.000  -0.000  -0.000  -0.000  -0.159  -0.000   0.000  -0.002   0.063  -0.000  -0.001   0.000  -0.000
 -0.004  -0.000   0.000   0.072  -0.058   0.000   0.000   0.000  -0.051  -0.009  -0.000   0.000   0.001  -0.000  -0.000  -0.000
 -0.000  -0.004  -0.000  -0.058   0.114   0.000   0.001   0.000   0.002  -0.055   0.000  -0.000   0.005   0.000  -0.001   0.000
 -0.055   0.009  -0.000   0.000   0.000  -0.010  -0.015   0.000   0.000   0.000   0.000  -0.000   0.000  -0.000  -0.000  -0.000
 -0.002  -0.051  -0.000   0.000   0.001  -0.015  -0.018  -0.000   0.000   0.000   0.000   0.000   0.001  -0.000   0.000  -0.000
 -0.000   0.000  -0.159   0.000   0.000   0.000  -0.000   0.023  -0.000  -0.000   0.009  -0.009   0.000  -0.000   0.000  -0.000
  0.001  -0.000  -0.000  -0.051   0.002   0.000   0.000  -0.000  -0.018   0.015   0.000  -0.000  -0.000  -0.000   0.001   0.000
 -0.000   0.000   0.000  -0.009  -0.055   0.000   0.000  -0.000   0.015  -0.010  -0.000   0.000  -0.000   0.000  -0.000   0.000
 -0.000   0.000  -0.002  -0.000   0.000   0.000  -0.000   0.009   0.000  -0.000   0.054   0.033   0.000  -0.000  -0.000   0.000
  0.000   0.000   0.063   0.000  -0.000  -0.000  -0.000  -0.009  -0.000   0.000   0.033  -0.011   0.000  -0.000   0.000   0.000
  0.001  -0.000  -0.000   0.001   0.005   0.000   0.001   0.000  -0.000  -0.000   0.000   0.000   0.007  -0.000  -0.000   0.001
 -0.000   0.000  -0.001  -0.000   0.000  -0.000  -0.000  -0.000  -0.000   0.000  -0.000  -0.000  -0.000   0.008  -0.000  -0.000
  0.005  -0.001   0.000  -0.000  -0.001  -0.000   0.000   0.000   0.001  -0.000   0.000   0.000  -0.000  -0.000   0.007  -0.000
  0.000  -0.000  -0.000  -0.000   0.000  -0.000  -0.000  -0.000   0.000   0.000   0.000   0.000   0.001  -0.000  -0.000  -0.000
  0.000   0.000   0.000   0.000  -0.000  -0.000   0.000  -0.000   0.000   0.000  -0.000   0.000  -0.000   0.001  -0.000   0.000
  0.000   0.000   0.000  -0.000  -0.000   0.000  -0.000   0.000  -0.000   0.000  -0.000   0.000   0.000  -0.000   0.001   0.000


------------------------ aborting loop because EDIFF is reached ----------------------------------------





 total charge     

# of ion       s       p       d       tot
------------------------------------------
    1        0.354   0.406   6.338   7.098
    2        0.354   0.406   6.330   7.090
    3        1.169   1.212   0.082   2.464
    4        0.785   0.843   0.000   1.628
    5        1.393   1.942   0.046   3.381
    6        1.387   1.952   0.047   3.385
    7        1.392   1.945   0.046   3.382
    8        1.394   1.945   0.045   3.384
    9        1.388   1.953   0.045   3.386
   10        1.393   1.946   0.045   3.384
--------------------------------------------------
tot         11.009  14.551  13.023  38.583



 magnetization (x)

# of ion       s       p       d       tot
------------------------------------------
    1        0.012   0.014   1.177   1.202
    2        0.012   0.014   1.179   1.205
    3       -0.004   0.002  -0.001  -0.002
    4       -0.003  -0.001   0.000  -0.004
    5       -0.001  -0.052  -0.001  -0.054
    6       -0.002  -0.032  -0.001  -0.034
    7       -0.001  -0.047  -0.001  -0.049
    8       -0.001  -0.056  -0.001  -0.058
    9       -0.002  -0.036  -0.001  -0.038
   10       -0.001  -0.052  -0.001  -0.054
--------------------------------------------------
tot          0.009  -0.245   2.350   2.114

    CHARGE:  cpu time    2.0200: real time    2.0215
    FORLOC:  cpu time    0.0640: real time    0.0630
    FORNL :  cpu time    6.7120: real time    6.7377
    STRESS:  cpu time   20.1560: real time   20.3092
    FORCOR:  cpu time   50.5040: real time   50.6302
    FORHAR:  cpu time    0.3280: real time    0.3286
    MIXING:  cpu time    0.0400: real time    0.0415
    OFIELD:  cpu time    0.0000: real time    0.0000

  FORCE on cell =-STRESS in cart. coord.  units (eV):
  Direction    XX          YY          ZZ          XY          YZ          ZX
  --------------------------------------------------------------------------------------
  Alpha Z    17.78961    17.78961    17.78961
  Ewald    8000.13510  8000.13275 -9718.97681    -0.00172    -0.00051    -0.00093
  Hartree  8464.49932  8464.50006 -8139.23158    -0.00019     0.00007     0.00012
  E(xc)    -249.69001  -249.68997  -248.27169     0.00000     0.00002     0.00002
  Local  -17321.66507-17321.66437 16980.97586     0.00162     0.00033     0.00062
  n-local   663.01151   662.62075   675.63123    -0.05228     1.11676     1.35583
  augment   -83.90484   -83.90475   -96.69098     0.00011     0.00000     0.00005
  Kinetic   512.12923   508.66147   528.80939    -2.57538     1.02831     1.37059
  Fock        0.00000     0.00000     0.00000     0.00000     0.00000     0.00000
  -------------------------------------------------------------------------------------
  Total       0.37521     0.37521     0.03502     0.00000     0.00000     0.00000
  in kB       0.69926     0.69926     0.06526     0.00000     0.00000     0.00000
  external pressure =        0.49 kB  Pullay stress =        0.00 kB


 VOLUME and BASIS-vectors are now :
 -----------------------------------------------------------------------------
  energy-cutoff  :      520.00
  volume of cell :      859.69
      direct lattice vectors                 reciprocal lattice vectors
     6.814018910 -0.000000156 -0.000000000     0.146756268 -0.084729769  0.000000000
     3.407009113  5.901113050 -0.000000000     0.000000004  0.169459554  0.000000000
    -0.000000000 -0.000000000 21.379877796     0.000000000  0.000000000  0.046772952

  length of vectors
     6.814018910  6.814018369 21.379877796     0.169459541  0.169459554  0.046772952


 FORCES acting on ions
    electron-ion (+dipol)            ewald-force                    non-local-force                 convergence-correction
 -----------------------------------------------------------------------------------------------
   0.868E-04 0.252E-04 0.462E+01   0.514E-03 0.309E-03 -.483E+01   -.185E-17 -.183E-17 0.190E+00   -.874E-06 0.238E-06 0.374E-02
   -.814E-04 -.422E-04 0.229E+01   -.521E-03 -.313E-03 -.247E+01   0.164E-17 -.845E-19 0.171E+00   -.351E-06 0.276E-06 0.324E-02
   -.396E-04 -.580E-05 0.176E+03   -.143E-03 -.793E-04 -.174E+03   -.555E-17 0.119E-17 -.239E+01   -.356E-07 -.320E-07 0.542E-02
   0.423E-04 0.106E-04 -.195E+03   0.155E-03 0.856E-04 0.192E+03   -.229E-16 -.157E-16 0.362E+01   -.233E-07 -.325E-07 -.557E-02
   -.211E+02 0.150E+00 -.379E+03   0.167E+02 -.876E-01 0.383E+03   0.416E+01 -.141E-01 -.474E+01   0.147E-01 -.532E-01 0.423E-02
   0.107E+02 0.182E+02 -.379E+03   -.843E+01 -.144E+02 0.383E+03   -.209E+01 -.360E+01 -.474E+01   -.535E-01 0.138E-01 0.423E-02
   0.104E+02 -.183E+02 -.379E+03   -.828E+01 0.145E+02 0.383E+03   -.207E+01 0.361E+01 -.474E+01   0.387E-01 0.394E-01 0.423E-02
   0.236E+02 -.454E-01 0.382E+03   -.194E+02 0.917E-01 -.387E+03   -.341E+01 0.177E-01 0.492E+01   -.159E-01 -.541E-01 -.178E-02
   -.118E+02 -.204E+02 0.382E+03   0.980E+01 0.168E+02 -.387E+03   0.172E+01 0.295E+01 0.492E+01   -.389E-01 0.408E-01 -.178E-02
   -.117E+02 0.204E+02 0.382E+03   0.964E+01 -.169E+02 -.387E+03   0.169E+01 -.297E+01 0.492E+01   0.548E-01 0.133E-01 -.178E-02
 -----------------------------------------------------------------------------------------------
   -.262E-04 0.780E-04 -.215E+01   -.711E-14 -.711E-14 -.114E-12   0.666E-15 0.888E-15 0.212E+01   -.143E-05 0.365E-06 0.142E-01


 POSITION                                       TOTAL-FORCE (eV/Angst)
 -----------------------------------------------------------------------------------
      3.40701      1.96704     10.67823        -0.000000      0.000000     -0.008932
      6.81402      3.93408     10.68339        -0.000000      0.000000     -0.004753
     -0.00000     -0.00000      9.58280        -0.000000     -0.000000      0.077927
     -0.00000     -0.00000     11.94185        -0.000000      0.000000     -0.012965
      4.26944      0.00248     12.26675        -0.207721     -0.004439     -0.005696
      1.27444      2.20244     12.26675         0.100016      0.182111     -0.005696
      4.67716      3.69620     12.26675         0.107705     -0.177672     -0.005696
      5.95159      5.89863      9.11313         0.694149      0.009414     -0.011396
      8.94659      3.69868      9.11313        -0.338922     -0.605857     -0.011396
      5.54387      2.20491      9.11313        -0.355227      0.596443     -0.011396
 -----------------------------------------------------------------------------------
    total drift:                               -0.000028      0.000078     -0.014058


--------------------------------------------------------------------------------------------------------



  FREE ENERGIE OF THE ION-ELECTRON SYSTEM (eV)
  ---------------------------------------------------
  free  energy   TOTEN  =       -38.37394900 eV

  energy  without entropy=      -38.37394900  energy(sigma->0) =      -38.37394900

 d Force = 0.1555131E-03[ 0.594E-04, 0.252E-03]  d Energy = 0.1138880E-02-0.983E-03
 d Force =-0.9151626E+00[-0.914E+00,-0.917E+00]  d Ewald  = 0.4768268E+01-0.568E+01


--------------------------------------------------------------------------------------------------------


    POTLOK:  cpu time   50.4280: real time   50.4665


--------------------------------------------------------------------------------------------------------




--------------------------------------------------------------------------------------------------------


  
 reached required accuracy - stopping structural energy minimisation
     LOOP+:  cpu time  518.1160: real time  519.4360
    4ORBIT:  cpu time    0.0000: real time    0.0000



 total charge     

# of ion       s       p       d       tot
------------------------------------------
    1        0.354   0.406   6.338   7.098
    2        0.354   0.406   6.330   7.090
    3        1.169   1.212   0.082   2.464
    4        0.785   0.843   0.000   1.628
    5        1.393   1.942   0.046   3.381
    6        1.387   1.952   0.047   3.385
    7        1.392   1.945   0.046   3.382
    8        1.394   1.945   0.045   3.384
    9        1.388   1.953   0.045   3.386
   10        1.393   1.946   0.045   3.384
--------------------------------------------------
tot         11.009  14.551  13.023  38.583



 magnetization (x)

# of ion       s       p       d       tot
------------------------------------------
    1        0.012   0.014   1.177   1.202
    2        0.012   0.014   1.179   1.205
    3       -0.004   0.002  -0.001  -0.002
    4       -0.003  -0.001   0.000  -0.004
    5       -0.001  -0.052  -0.001  -0.054
    6       -0.002  -0.032  -0.001  -0.034
    7       -0.001  -0.047  -0.001  -0.049
    8       -0.001  -0.056  -0.001  -0.058
    9       -0.002  -0.036  -0.001  -0.038
   10       -0.001  -0.052  -0.001  -0.054
--------------------------------------------------
tot          0.009  -0.245   2.350   2.114

 BZINTS: Fermi energy: -1.730164; 60.000000 electrons
         Band energy:-369.295567;  BLOECHL correction:  0.000000

 total amount of memory used by VASP MPI-rank0   132007. kBytes
=======================================================================

   base      :      30000. kBytes
   nonlr-proj:       9507. kBytes
   fftplans  :      11247. kBytes
   grid      :      68332. kBytes
   one-center:        311. kBytes
   wavefun   :      12610. kBytes

  
  
 General timing and accounting informations for this job:
 ========================================================
  
                  Total CPU time used (sec):    12380.668
                            User time (sec):    12117.532
                          System time (sec):      263.136
                         Elapsed time (sec):    12488.814
  
                   Maximum memory used (kb):      386480.
                   Average memory used (kb):           0.
  
                          Minor page faults:     10944811
                          Major page faults:            7
                 Voluntary context switches:         1035
