  10  10   1   0
  0.9688350E+02  0.6907777E-09  0.6907777E-09  0.2344459E-08  0.5000000E-15
   1.0000000000000000E-004
  CAR 
 unknown system                          
      5.58348949    -18.34476744  301     -3.15032429      1.00000000
    -18.345  0.0000E+00  0.0000E+00  0.0000E+00  0.0000E+00
    -18.265  0.0000E+00  0.0000E+00  0.0000E+00  0.0000E+00
    -18.185  0.0000E+00  0.0000E+00  0.0000E+00  0.0000E+00
    -18.105  0.0000E+00  0.0000E+00  0.0000E+00  0.0000E+00
    -18.026  0.0000E+00  0.0000E+00  0.0000E+00  0.0000E+00
    -17.946  0.0000E+00  0.0000E+00  0.0000E+00  0.0000E+00
    -17.866  0.0000E+00  0.0000E+00  0.0000E+00  0.0000E+00
    -17.786  0.0000E+00  0.0000E+00  0.0000E+00  0.0000E+00
    -17.707  0.0000E+00  0.0000E+00  0.0000E+00  0.0000E+00
    -17.627  0.0000E+00  0.0000E+00  0.0000E+00  0.0000E+00
    -17.547  0.0000E+00  0.0000E+00  0.0000E+00  0.0000E+00
    -17.467  0.0000E+00  0.0000E+00  0.0000E+00  0.0000E+00
    -17.388  0.0000E+00  0.0000E+00  0.0000E+00  0.0000E+00
    -17.308  0.0000E+00  0.0000E+00  0.0000E+00  0.0000E+00
    -17.228  0.3316E-02  0.2433E-02  0.4809E-04  0.2461E-04
    -17.148  0.1244E-01  0.1203E-01  0.6763E-03  0.6012E-03
    -17.069  0.9710E-02  0.9957E-02  0.1616E-02  0.1577E-02
    -16.989  0.1085E-01  0.1119E-01  0.2436E-02  0.2420E-02
    -16.909  0.1199E-01  0.1241E-01  0.3347E-02  0.3362E-02
    -16.829  0.1378E-01  0.1452E-01  0.4354E-02  0.4409E-02
    -16.750  0.1820E-01  0.1953E-01  0.5629E-02  0.5767E-02
    -16.670  0.2346E-01  0.2322E-01  0.7700E-02  0.7963E-02
    -16.590  0.1375E-01  0.1245E-01  0.9184E-02  0.9386E-02
    -16.510  0.0000E+00  0.0000E+00  0.1010E-01  0.1010E-01
    -16.431  0.0000E+00  0.0000E+00  0.1010E-01  0.1010E-01
    -16.351  0.0000E+00  0.0000E+00  0.1010E-01  0.1010E-01
    -16.271  0.1063E-01  0.1770E-01  0.1034E-01  0.1076E-01
    -16.191  0.1454E-01  0.1553E-01  0.1165E-01  0.1209E-01
    -16.111  0.1736E-01  0.1831E-01  0.1292E-01  0.1344E-01
    -16.032  0.3318E-01  0.5932E-01  0.1445E-01  0.1569E-01
    -15.952  0.0000E+00  0.0000E+00  0.2020E-01  0.2020E-01
    -15.872  0.2626E-01  0.3254E-01  0.2175E-01  0.2280E-01
    -15.792  0.2541E-01  0.2240E-01  0.2449E-01  0.2499E-01
    -15.713  0.1485E-01  0.1226E-01  0.2609E-01  0.2637E-01
    -15.633  0.9256E-02  0.2869E-01  0.2695E-01  0.2776E-01
    -15.553  0.3155E-01  0.3579E-01  0.2945E-01  0.3033E-01
    -15.473  0.3725E-01  0.4196E-01  0.3219E-01  0.3345E-01
    -15.394  0.7564E-01  0.7820E-01  0.3668E-01  0.3939E-01
    -15.314  0.5858E-01  0.1436E+00  0.4252E-01  0.4608E-01
    -15.234  0.8592E-01  0.7617E-01  0.5201E-01  0.5539E-01
    -15.154  0.4930E-01  0.3545E-01  0.5795E-01  0.5978E-01
    -15.075  0.6525E-02  0.0000E+00  0.6057E-01  0.6061E-01
    -14.995  0.0000E+00  0.0000E+00  0.6061E-01  0.6061E-01
    -14.915  0.0000E+00  0.0000E+00  0.6061E-01  0.6061E-01
    -14.835  0.0000E+00  0.0000E+00  0.6061E-01  0.6061E-01
    -14.756  0.0000E+00  0.0000E+00  0.6061E-01  0.6061E-01
    -14.676  0.0000E+00  0.0000E+00  0.6061E-01  0.6061E-01
    -14.596  0.0000E+00  0.0000E+00  0.6061E-01  0.6061E-01
    -14.516  0.0000E+00  0.0000E+00  0.6061E-01  0.6061E-01
    -14.436  0.0000E+00  0.0000E+00  0.6061E-01  0.6061E-01
    -14.357  0.0000E+00  0.0000E+00  0.6061E-01  0.6061E-01
    -14.277  0.0000E+00  0.0000E+00  0.6061E-01  0.6061E-01
    -14.197  0.0000E+00  0.0000E+00  0.6061E-01  0.6061E-01
    -14.117  0.0000E+00  0.0000E+00  0.6061E-01  0.6061E-01
    -14.038  0.0000E+00  0.0000E+00  0.6061E-01  0.6061E-01
    -13.958  0.0000E+00  0.0000E+00  0.6061E-01  0.6061E-01
    -13.878  0.0000E+00  0.0000E+00  0.6061E-01  0.6061E-01
    -13.798  0.0000E+00  0.0000E+00  0.6061E-01  0.6061E-01
    -13.719  0.0000E+00  0.0000E+00  0.6061E-01  0.6061E-01
    -13.639  0.0000E+00  0.0000E+00  0.6061E-01  0.6061E-01
    -13.559  0.0000E+00  0.0000E+00  0.6061E-01  0.6061E-01
    -13.479  0.0000E+00  0.0000E+00  0.6061E-01  0.6061E-01
    -13.400  0.0000E+00  0.0000E+00  0.6061E-01  0.6061E-01
    -13.320  0.0000E+00  0.0000E+00  0.6061E-01  0.6061E-01
    -13.240  0.0000E+00  0.0000E+00  0.6061E-01  0.6061E-01
    -13.160  0.0000E+00  0.0000E+00  0.6061E-01  0.6061E-01
    -13.081  0.0000E+00  0.0000E+00  0.6061E-01  0.6061E-01
    -13.001  0.0000E+00  0.0000E+00  0.6061E-01  0.6061E-01
    -12.921  0.0000E+00  0.0000E+00  0.6061E-01  0.6061E-01
    -12.841  0.0000E+00  0.0000E+00  0.6061E-01  0.6061E-01
    -12.762  0.0000E+00  0.0000E+00  0.6061E-01  0.6061E-01
    -12.682  0.0000E+00  0.0000E+00  0.6061E-01  0.6061E-01
    -12.602  0.0000E+00  0.0000E+00  0.6061E-01  0.6061E-01
    -12.522  0.0000E+00  0.0000E+00  0.6061E-01  0.6061E-01
    -12.442  0.0000E+00  0.0000E+00  0.6061E-01  0.6061E-01
    -12.363  0.0000E+00  0.0000E+00  0.6061E-01  0.6061E-01
    -12.283  0.0000E+00  0.0000E+00  0.6061E-01  0.6061E-01
    -12.203  0.0000E+00  0.0000E+00  0.6061E-01  0.6061E-01
    -12.123  0.0000E+00  0.0000E+00  0.6061E-01  0.6061E-01
    -12.044  0.0000E+00  0.0000E+00  0.6061E-01  0.6061E-01
    -11.964  0.0000E+00  0.0000E+00  0.6061E-01  0.6061E-01
    -11.884  0.0000E+00  0.0000E+00  0.6061E-01  0.6061E-01
    -11.804  0.0000E+00  0.0000E+00  0.6061E-01  0.6061E-01
    -11.725  0.0000E+00  0.0000E+00  0.6061E-01  0.6061E-01
    -11.645  0.0000E+00  0.0000E+00  0.6061E-01  0.6061E-01
    -11.565  0.0000E+00  0.0000E+00  0.6061E-01  0.6061E-01
    -11.485  0.0000E+00  0.0000E+00  0.6061E-01  0.6061E-01
    -11.406  0.0000E+00  0.0000E+00  0.6061E-01  0.6061E-01
    -11.326  0.0000E+00  0.0000E+00  0.6061E-01  0.6061E-01
    -11.246  0.0000E+00  0.0000E+00  0.6061E-01  0.6061E-01
    -11.166  0.0000E+00  0.0000E+00  0.6061E-01  0.6061E-01
    -11.087  0.3652E-02  0.0000E+00  0.6064E-01  0.6061E-01
    -11.007  0.2195E-01  0.1090E-01  0.6166E-01  0.6086E-01
    -10.927  0.1869E-01  0.1539E-01  0.6297E-01  0.6217E-01
    -10.847  0.2506E-01  0.2181E-01  0.6471E-01  0.6366E-01
    -10.767  0.3475E-01  0.4616E-01  0.6756E-01  0.6584E-01
    -10.688  0.2087E-01  0.2960E-01  0.6978E-01  0.6886E-01
    -10.608  0.0000E+00  0.0000E+00  0.7071E-01  0.7071E-01
    -10.528  0.0000E+00  0.0000E+00  0.7071E-01  0.7071E-01
    -10.448  0.0000E+00  0.0000E+00  0.7071E-01  0.7071E-01
    -10.369  0.0000E+00  0.0000E+00  0.7071E-01  0.7071E-01
    -10.289  0.0000E+00  0.0000E+00  0.7071E-01  0.7071E-01
    -10.209  0.0000E+00  0.0000E+00  0.7071E-01  0.7071E-01
    -10.129  0.0000E+00  0.0000E+00  0.7071E-01  0.7071E-01
    -10.050  0.0000E+00  0.0000E+00  0.7071E-01  0.7071E-01
     -9.970  0.0000E+00  0.0000E+00  0.7071E-01  0.7071E-01
     -9.890  0.0000E+00  0.0000E+00  0.7071E-01  0.7071E-01
     -9.810  0.0000E+00  0.0000E+00  0.7071E-01  0.7071E-01
     -9.731  0.0000E+00  0.0000E+00  0.7071E-01  0.7071E-01
     -9.651  0.0000E+00  0.0000E+00  0.7071E-01  0.7071E-01
     -9.571  0.0000E+00  0.0000E+00  0.7071E-01  0.7071E-01
     -9.491  0.0000E+00  0.0000E+00  0.7071E-01  0.7071E-01
     -9.412  0.3866E-01  0.0000E+00  0.7714E-01  0.7071E-01
     -9.332  0.1389E-01  0.2025E+00  0.7971E-01  0.7572E-01
     -9.252  0.6865E-02  0.1366E-01  0.8054E-01  0.7990E-01
     -9.172  0.0000E+00  0.5477E-02  0.8081E-01  0.8066E-01
     -9.093  0.0000E+00  0.0000E+00  0.8081E-01  0.8081E-01
     -9.013  0.0000E+00  0.0000E+00  0.8081E-01  0.8081E-01
     -8.933  0.0000E+00  0.0000E+00  0.8081E-01  0.8081E-01
     -8.853  0.0000E+00  0.0000E+00  0.8081E-01  0.8081E-01
     -8.773  0.0000E+00  0.0000E+00  0.8081E-01  0.8081E-01
     -8.694  0.0000E+00  0.0000E+00  0.8081E-01  0.8081E-01
     -8.614  0.0000E+00  0.0000E+00  0.8081E-01  0.8081E-01
     -8.534  0.0000E+00  0.0000E+00  0.8081E-01  0.8081E-01
     -8.454  0.0000E+00  0.0000E+00  0.8081E-01  0.8081E-01
     -8.375  0.0000E+00  0.0000E+00  0.8081E-01  0.8081E-01
     -8.295  0.2385E-02  0.0000E+00  0.8081E-01  0.8081E-01
     -8.215  0.4023E-01  0.0000E+00  0.8251E-01  0.8081E-01
     -8.135  0.4593E-01  0.0000E+00  0.8852E-01  0.8081E-01
     -8.056  0.1955E-01  0.2957E-01  0.9317E-01  0.8161E-01
     -7.976  0.2505E-01  0.5221E-01  0.9521E-01  0.8783E-01
     -7.896  0.3323E-01  0.1750E-01  0.9754E-01  0.9317E-01
     -7.816  0.2952E-01  0.3306E-01  0.1000E+00  0.9519E-01
     -7.737  0.3332E-01  0.3535E-01  0.1023E+00  0.9816E-01
     -7.657  0.4451E-01  0.3021E-01  0.1063E+00  0.1008E+00
     -7.577  0.2982E-01  0.3705E-01  0.1108E+00  0.1032E+00
     -7.497  0.3084E-01  0.2678E-01  0.1132E+00  0.1069E+00
     -7.418  0.1012E-01  0.4009E-01  0.1145E+00  0.1096E+00
     -7.338  0.1157E-01  0.3064E-01  0.1154E+00  0.1127E+00
     -7.258  0.1302E-01  0.1012E-01  0.1163E+00  0.1146E+00
     -7.178  0.2695E-01  0.1125E-01  0.1179E+00  0.1154E+00
     -7.098  0.4284E-01  0.1274E-01  0.1207E+00  0.1164E+00
     -7.019  0.1373E-01  0.3171E-01  0.1244E+00  0.1180E+00
     -6.939  0.1660E-01  0.4870E-01  0.1256E+00  0.1218E+00
     -6.859  0.1947E-01  0.1375E-01  0.1270E+00  0.1246E+00
     -6.779  0.2235E-01  0.1647E-01  0.1287E+00  0.1258E+00
     -6.700  0.2986E-01  0.1918E-01  0.1307E+00  0.1272E+00
     -6.620  0.3138E-01  0.2189E-01  0.1334E+00  0.1288E+00
     -6.540  0.3480E-01  0.2460E-01  0.1377E+00  0.1307E+00
     -6.460  0.2172E-01  0.3279E-02  0.1400E+00  0.1325E+00
     -6.381  0.8638E-02  0.1260E-01  0.1412E+00  0.1332E+00
     -6.301  0.1917E+00  0.3866E-01  0.1423E+00  0.1369E+00
     -6.221  0.1974E+00  0.2532E-01  0.1536E+00  0.1395E+00
     -6.141  0.5032E-01  0.1442E-01  0.1589E+00  0.1410E+00
     -6.062  0.7223E-01  0.6809E-02  0.1634E+00  0.1418E+00
     -5.982  0.6573E-01  0.1117E-01  0.1702E+00  0.1426E+00
     -5.902  0.3637E-01  0.6942E-01  0.1744E+00  0.1492E+00
     -5.822  0.9183E-01  0.5360E-01  0.1783E+00  0.1558E+00
     -5.743  0.1305E-01  0.1473E-01  0.1814E+00  0.1594E+00
     -5.663  0.2628E-01  0.6438E-01  0.1824E+00  0.1660E+00
     -5.583  0.3457E-01  0.9289E-01  0.1858E+00  0.1721E+00
     -5.503  0.8284E-01  0.6786E-01  0.1919E+00  0.1771E+00
     -5.424  0.2992E-01  0.6249E-01  0.1976E+00  0.1824E+00
     -5.344  0.9255E-02  0.5745E-01  0.1985E+00  0.1870E+00
     -5.264  0.4117E-01  0.1782E-01  0.2029E+00  0.1891E+00
     -5.184  0.4066E-01  0.4535E-01  0.2061E+00  0.1927E+00
     -5.104  0.1933E-01  0.2676E-01  0.2080E+00  0.1973E+00
     -5.025  0.1402E-01  0.1452E-01  0.2093E+00  0.1987E+00
     -4.945  0.7096E-01  0.5405E-01  0.2152E+00  0.2033E+00
     -4.865  0.4213E-01  0.6910E-01  0.2190E+00  0.2082E+00
     -4.785  0.4263E-01  0.3926E-01  0.2224E+00  0.2115E+00
     -4.706  0.1264E+00  0.5789E-01  0.2259E+00  0.2153E+00
     -4.626  0.2868E-01  0.7702E-01  0.2294E+00  0.2208E+00
     -4.546  0.0000E+00  0.6425E-01  0.2323E+00  0.2266E+00
     -4.466  0.3311E+00  0.3530E-01  0.2352E+00  0.2303E+00
     -4.387  0.3534E-01  0.1702E-01  0.2408E+00  0.2323E+00
     -4.307  0.2344E-01  0.2277E-01  0.2432E+00  0.2339E+00
     -4.227  0.2834E-01  0.2853E-01  0.2453E+00  0.2359E+00
     -4.147  0.9987E-02  0.1094E-01  0.2515E+00  0.2390E+00
     -4.068  0.5926E-02  0.1048E-01  0.2522E+00  0.2399E+00
     -3.988  0.1282E+00  0.1063E-01  0.2572E+00  0.2407E+00
     -3.908  0.1957E-01  0.7398E-02  0.2603E+00  0.2415E+00
     -3.828  0.5374E-01  0.5079E-02  0.2662E+00  0.2420E+00
     -3.749  0.4483E-01  0.2759E-02  0.2701E+00  0.2423E+00
     -3.669  0.1437E+00  0.6650E-01  0.2785E+00  0.2434E+00
     -3.589  0.0000E+00  0.2083E-01  0.2828E+00  0.2452E+00
     -3.509  0.0000E+00  0.2683E-01  0.2828E+00  0.2471E+00
     -3.429  0.5862E-02  0.0000E+00  0.2929E+00  0.2525E+00
     -3.350  0.3166E+00  0.0000E+00  0.3000E+00  0.2525E+00
     -3.270  0.0000E+00  0.0000E+00  0.3030E+00  0.2525E+00
     -3.190  0.9150E-01  0.0000E+00  0.3075E+00  0.2525E+00
     -3.110  0.0000E+00  0.0000E+00  0.3131E+00  0.2525E+00
     -3.031  0.0000E+00  0.0000E+00  0.3131E+00  0.2525E+00
     -2.951  0.0000E+00  0.0000E+00  0.3131E+00  0.2525E+00
     -2.871  0.0000E+00  0.0000E+00  0.3131E+00  0.2525E+00
     -2.791  0.0000E+00  0.0000E+00  0.3131E+00  0.2525E+00
     -2.712  0.0000E+00  0.0000E+00  0.3131E+00  0.2525E+00
     -2.632  0.0000E+00  0.0000E+00  0.3131E+00  0.2525E+00
     -2.552  0.0000E+00  0.0000E+00  0.3131E+00  0.2525E+00
     -2.472  0.0000E+00  0.0000E+00  0.3131E+00  0.2525E+00
     -2.393  0.0000E+00  0.0000E+00  0.3131E+00  0.2525E+00
     -2.313  0.0000E+00  0.0000E+00  0.3131E+00  0.2525E+00
     -2.233  0.0000E+00  0.0000E+00  0.3131E+00  0.2525E+00
     -2.153  0.0000E+00  0.9643E-02  0.3131E+00  0.2531E+00
     -2.074  0.0000E+00  0.2292E-01  0.3131E+00  0.2544E+00
     -1.994  0.0000E+00  0.1682E-01  0.3131E+00  0.2564E+00
     -1.914  0.1985E-01  0.1257E-01  0.3139E+00  0.2576E+00
     -1.834  0.4165E-01  0.8325E-02  0.3163E+00  0.2584E+00
     -1.755  0.4121E-01  0.7347E-02  0.3206E+00  0.2590E+00
     -1.675  0.3136E-01  0.6951E-02  0.3246E+00  0.2596E+00
     -1.595  0.2907E-01  0.2380E-01  0.3277E+00  0.2609E+00
     -1.515  0.2984E-01  0.4633E-01  0.3317E+00  0.2641E+00
     -1.435  0.8646E-02  0.6031E-01  0.3332E+00  0.2683E+00
     -1.356  0.7679E-01  0.8892E-01  0.3381E+00  0.2743E+00
     -1.276  0.4106E-02  0.3000E-01  0.3433E+00  0.2812E+00
     -1.196  0.1324E+00  0.0000E+00  0.3487E+00  0.2828E+00
     -1.116  0.0000E+00  0.0000E+00  0.3535E+00  0.2828E+00
     -1.037  0.0000E+00  0.0000E+00  0.3535E+00  0.2828E+00
     -0.957  0.0000E+00  0.0000E+00  0.3535E+00  0.2828E+00
     -0.877  0.0000E+00  0.2284E+00  0.3535E+00  0.2860E+00
     -0.797  0.0000E+00  0.1640E+00  0.3535E+00  0.2996E+00
     -0.718  0.0000E+00  0.5537E-01  0.3535E+00  0.3051E+00
     -0.638  0.0000E+00  0.4268E-01  0.3535E+00  0.3142E+00
     -0.558  0.0000E+00  0.4219E-01  0.3535E+00  0.3194E+00
     -0.478  0.0000E+00  0.4503E-01  0.3535E+00  0.3230E+00
     -0.399  0.0000E+00  0.4477E-01  0.3535E+00  0.3268E+00
     -0.319  0.0000E+00  0.7046E-01  0.3535E+00  0.3308E+00
     -0.239  0.0000E+00  0.0000E+00  0.3535E+00  0.3333E+00
     -0.159  0.0000E+00  0.0000E+00  0.3535E+00  0.3333E+00
     -0.080  0.0000E+00  0.1035E+00  0.3535E+00  0.3375E+00
      0.000  0.0000E+00  0.8700E-01  0.3535E+00  0.3439E+00
      0.080  0.0000E+00  0.2009E+00  0.3535E+00  0.3502E+00
      0.160  0.0000E+00  0.0000E+00  0.3535E+00  0.3535E+00
      0.240  0.7521E-02  0.0000E+00  0.3544E+00  0.3535E+00
      0.319  0.1044E-01  0.0000E+00  0.3551E+00  0.3535E+00
      0.399  0.1422E-01  0.7378E-02  0.3561E+00  0.3542E+00
      0.479  0.1800E-01  0.1057E-01  0.3573E+00  0.3549E+00
      0.559  0.1696E-01  0.1441E-01  0.3589E+00  0.3559E+00
      0.638  0.3172E-01  0.1825E-01  0.3608E+00  0.3572E+00
      0.718  0.3381E-01  0.1608E-01  0.3634E+00  0.3588E+00
      0.798  0.3594E-02  0.2262E-01  0.3640E+00  0.3604E+00
      0.878  0.7995E-01  0.2187E-01  0.3667E+00  0.3622E+00
      0.957  0.4785E-01  0.2112E-01  0.3734E+00  0.3639E+00
      1.037  0.0000E+00  0.4699E-02  0.3737E+00  0.3645E+00
      1.117  0.8311E-02  0.1120E-01  0.3743E+00  0.3649E+00
      1.197  0.1161E-01  0.3008E-01  0.3750E+00  0.3666E+00
      1.276  0.1491E-01  0.3697E-01  0.3761E+00  0.3693E+00
      1.356  0.1821E-01  0.3232E-01  0.3774E+00  0.3723E+00
      1.436  0.4463E-01  0.0000E+00  0.3798E+00  0.3737E+00
      1.516  0.3374E-01  0.1615E+00  0.3828E+00  0.3782E+00
      1.595  0.4416E-01  0.4308E-01  0.3856E+00  0.3822E+00
      1.675  0.6329E-01  0.3689E-01  0.3906E+00  0.3850E+00
      1.755  0.1543E-01  0.5639E-01  0.3931E+00  0.3899E+00
      1.835  0.0000E+00  0.1842E-01  0.3939E+00  0.3924E+00
      1.914  0.0000E+00  0.1082E-01  0.3939E+00  0.3935E+00
      1.994  0.0000E+00  0.0000E+00  0.3939E+00  0.3939E+00
      2.074  0.1693E-01  0.0000E+00  0.3952E+00  0.3939E+00
      2.154  0.2880E-01  0.0000E+00  0.3970E+00  0.3939E+00
      2.234  0.1075E+00  0.5468E-02  0.4003E+00  0.3941E+00
      2.313  0.1079E+00  0.1937E-01  0.4109E+00  0.3951E+00
      2.393  0.9701E-02  0.1492E+00  0.4149E+00  0.3997E+00
      2.473  0.1241E-01  0.1861E-01  0.4158E+00  0.4067E+00
      2.553  0.6044E-01  0.8716E-01  0.4184E+00  0.4087E+00
      2.632  0.4229E-01  0.7137E-01  0.4218E+00  0.4162E+00
      2.712  0.3583E-01  0.2962E-01  0.4243E+00  0.4184E+00
      2.792  0.4055E-01  0.3607E-01  0.4287E+00  0.4210E+00
      2.872  0.1740E-01  0.5509E-01  0.4307E+00  0.4256E+00
      2.951  0.1527E-01  0.2040E-01  0.4319E+00  0.4278E+00
      3.031  0.5668E-01  0.1858E-01  0.4359E+00  0.4294E+00
      3.111  0.3322E-01  0.3286E-01  0.4394E+00  0.4314E+00
      3.191  0.8628E-01  0.4464E-01  0.4435E+00  0.4345E+00
      3.270  0.5274E-01  0.4344E-01  0.4515E+00  0.4384E+00
      3.350  0.8367E-01  0.7856E-01  0.4572E+00  0.4428E+00
      3.430  0.3373E-01  0.3802E-01  0.4620E+00  0.4499E+00
      3.510  0.1439E-01  0.4727E-01  0.4640E+00  0.4536E+00
      3.589  0.6137E-01  0.6829E-01  0.4650E+00  0.4582E+00
      3.669  0.4430E-01  0.3362E-01  0.4689E+00  0.4630E+00
      3.749  0.6530E-01  0.0000E+00  0.4730E+00  0.4646E+00
      3.829  0.1806E-01  0.4980E-01  0.4762E+00  0.4689E+00
      3.909  0.2564E-01  0.4647E-01  0.4779E+00  0.4735E+00
      3.988  0.3723E+00  0.3103E-01  0.4812E+00  0.4766E+00
      4.068  0.6391E-02  0.2255E-01  0.4843E+00  0.4785E+00
      4.148  0.3545E-02  0.1091E-01  0.4847E+00  0.4818E+00
      4.228  0.6999E-03  0.1411E-01  0.4848E+00  0.4827E+00
      4.307  0.0000E+00  0.1034E-01  0.4848E+00  0.4839E+00
      4.387  0.0000E+00  0.5967E-02  0.4848E+00  0.4845E+00
      4.467  0.0000E+00  0.1591E-02  0.4848E+00  0.4848E+00
      4.547  0.0000E+00  0.0000E+00  0.4848E+00  0.4848E+00
      4.626  0.0000E+00  0.0000E+00  0.4848E+00  0.4848E+00
      4.706  0.0000E+00  0.0000E+00  0.4848E+00  0.4848E+00
      4.786  0.0000E+00  0.0000E+00  0.4848E+00  0.4848E+00
      4.866  0.0000E+00  0.0000E+00  0.4848E+00  0.4848E+00
      4.945  0.0000E+00  0.0000E+00  0.4848E+00  0.4848E+00
      5.025  0.0000E+00  0.0000E+00  0.4848E+00  0.4848E+00
      5.105  0.0000E+00  0.0000E+00  0.4848E+00  0.4848E+00
      5.185  0.0000E+00  0.0000E+00  0.4848E+00  0.4848E+00
      5.264  0.0000E+00  0.0000E+00  0.4848E+00  0.4848E+00
      5.344  0.0000E+00  0.0000E+00  0.4848E+00  0.4848E+00
      5.424  0.0000E+00  0.0000E+00  0.4848E+00  0.4848E+00
      5.504  0.0000E+00  0.0000E+00  0.4848E+00  0.4848E+00
      5.583  0.0000E+00  0.0000E+00  0.4848E+00  0.4848E+00
      5.58348949    -18.34476744  301     -3.15032429      1.00000000
    -18.345  0.0000E+00  0.0000E+00  0.0000E+00  0.0000E+00  0.0000E+00  0.0000E+00  0.0000E+00  0.0000E+00  0.0000E+00  0.0000E+00  0.0000E+00  0.0000E+00  0.0000E+00  0.0000E+00  0.0000E+00  0.0000E+00  0.0000E+00  0.0000E+00
    -18.265  0.0000E+00  0.0000E+00  0.0000E+00  0.0000E+00  0.0000E+00  0.0000E+00  0.0000E+00  0.0000E+00  0.0000E+00  0.0000E+00  0.0000E+00  0.0000E+00  0.0000E+00  0.0000E+00  0.0000E+00  0.0000E+00  0.0000E+00  0.0000E+00
    -18.185  0.0000E+00  0.0000E+00  0.0000E+00  0.0000E+00  0.0000E+00  0.0000E+00  0.0000E+00  0.0000E+00  0.0000E+00  0.0000E+00  0.0000E+00  0.0000E+00  0.0000E+00  0.0000E+00  0.0000E+00  0.0000E+00  0.0000E+00  0.0000E+00
    -18.105  0.0000E+00  0.0000E+00  0.0000E+00  0.0000E+00  0.0000E+00  0.0000E+00  0.0000E+00  0.0000E+00  0.0000E+00  0.0000E+00  0.0000E+00  0.0000E+00  0.0000E+00  0.0000E+00  0.0000E+00  0.0000E+00  0.0000E+00  0.0000E+00
    -18.026  0.0000E+00  0.0000E+00  0.0000E+00  0.0000E+00  0.0000E+00  0.0000E+00  0.0000E+00  0.0000E+00  0.0000E+00  0.0000E+00  0.0000E+00  0.0000E+00  0.0000E+00  0.0000E+00  0.0000E+00  0.0000E+00  0.0000E+00  0.0000E+00
    -17.946  0.0000E+00  0.0000E+00  0.0000E+00  0.0000E+00  0.0000E+00  0.0000E+00  0.0000E+00  0.0000E+00  0.0000E+00  0.0000E+00  0.0000E+00  0.0000E+00  0.0000E+00  0.0000E+00  0.0000E+00  0.0000E+00  0.0000E+00  0.0000E+00
    -17.866  0.0000E+00  0.0000E+00  0.0000E+00  0.0000E+00  0.0000E+00  0.0000E+00  0.0000E+00  0.0000E+00  0.0000E+00  0.0000E+00  0.0000E+00  0.0000E+00  0.0000E+00  0.0000E+00  0.0000E+00  0.0000E+00  0.0000E+00  0.0000E+00
    -17.786  0.0000E+00  0.0000E+00  0.0000E+00  0.0000E+00  0.0000E+00  0.0000E+00  0.0000E+00  0.0000E+00  0.0000E+00  0.0000E+00  0.0000E+00  0.0000E+00  0.0000E+00  0.0000E+00  0.0000E+00  0.0000E+00  0.0000E+00  0.0000E+00
    -17.707  0.0000E+00  0.0000E+00  0.0000E+00  0.0000E+00  0.0000E+00  0.0000E+00  0.0000E+00  0.0000E+00  0.0000E+00  0.0000E+00  0.0000E+00  0.0000E+00  0.0000E+00  0.0000E+00  0.0000E+00  0.0000E+00  0.0000E+00  0.0000E+00
    -17.627  0.0000E+00  0.0000E+00  0.0000E+00  0.0000E+00  0.0000E+00  0.0000E+00  0.0000E+00  0.0000E+00  0.0000E+00  0.0000E+00  0.0000E+00  0.0000E+00  0.0000E+00  0.0000E+00  0.0000E+00  0.0000E+00  0.0000E+00  0.0000E+00
    -17.547  0.0000E+00  0.0000E+00  0.0000E+00  0.0000E+00  0.0000E+00  0.0000E+00  0.0000E+00  0.0000E+00  0.0000E+00  0.0000E+00  0.0000E+00  0.0000E+00  0.0000E+00  0.0000E+00  0.0000E+00  0.0000E+00  0.0000E+00  0.0000E+00
    -17.467  0.0000E+00  0.0000E+00  0.0000E+00  0.0000E+00  0.0000E+00  0.0000E+00  0.0000E+00  0.0000E+00  0.0000E+00  0.0000E+00  0.0000E+00  0.0000E+00  0.0000E+00  0.0000E+00  0.0000E+00  0.0000E+00  0.0000E+00  0.0000E+00
    -17.388  0.0000E+00  0.0000E+00  0.0000E+00  0.0000E+00  0.0000E+00  0.0000E+00  0.0000E+00  0.0000E+00  0.0000E+00  0.0000E+00  0.0000E+00  0.0000E+00  0.0000E+00  0.0000E+00  0.0000E+00  0.0000E+00  0.0000E+00  0.0000E+00
    -17.308  0.0000E+00  0.0000E+00  0.0000E+00  0.0000E+00  0.0000E+00  0.0000E+00  0.0000E+00  0.0000E+00  0.0000E+00  0.0000E+00  0.0000E+00  0.0000E+00  0.0000E+00  0.0000E+00  0.0000E+00  0.0000E+00  0.0000E+00  0.0000E+00
    -17.228  0.6373E-02  0.4146E-02  0.4916E-04  0.3237E-04  0.6416E-09  0.4152E-09  0.1476E-03  0.9716E-04  0.3137E-05  0.2076E-05  0.4611E-05  0.3231E-05  0.6642E-06  0.9423E-06  0.1559E-05  0.1093E-05  0.1078E-05  0.7143E-06
    -17.148  0.2350E-01  0.2013E-01  0.2303E-03  0.2019E-03  0.2474E-08  0.2109E-08  0.6912E-03  0.6062E-03  0.1469E-04  0.1295E-04  0.2160E-04  0.2016E-04  0.2754E-05  0.4935E-05  0.7303E-05  0.6821E-05  0.5049E-05  0.4456E-05
    -17.069  0.1572E-01  0.1423E-01  0.2600E-03  0.2448E-03  0.7268E-07  0.7614E-07  0.1535E-02  0.1429E-02  0.3720E-04  0.3460E-04  0.6026E-04  0.5862E-04  0.3635E-05  0.5362E-05  0.3073E-04  0.2884E-04  0.2819E-04  0.2419E-04
    -16.989  0.1634E-01  0.1480E-01  0.3706E-03  0.3535E-03  0.9448E-07  0.1004E-06  0.2096E-02  0.1978E-02  0.5924E-04  0.5560E-04  0.9389E-04  0.9251E-04  0.4576E-05  0.6377E-05  0.4520E-04  0.4316E-04  0.4039E-04  0.3531E-04
    -16.909  0.1686E-01  0.1526E-01  0.4994E-03  0.4805E-03  0.1133E-06  0.1212E-06  0.2680E-02  0.2551E-02  0.8354E-04  0.7873E-04  0.1305E-03  0.1295E-03  0.5548E-05  0.7405E-05  0.6021E-04  0.5808E-04  0.5270E-04  0.4659E-04
    -16.829  0.1706E-01  0.1542E-01  0.7946E-03  0.8049E-03  0.1658E-06  0.1864E-06  0.3654E-02  0.3592E-02  0.1342E-03  0.1314E-03  0.2075E-03  0.2141E-03  0.6749E-05  0.8671E-05  0.1025E-03  0.1049E-03  0.8483E-04  0.7971E-04
    -16.750  0.1590E-01  0.1436E-01  0.1824E-02  0.1864E-02  0.3668E-06  0.4066E-06  0.6144E-02  0.6116E-02  0.2977E-03  0.2885E-03  0.4574E-03  0.4674E-03  0.8463E-05  0.1025E-04  0.2671E-03  0.2694E-03  0.2048E-03  0.1920E-03
    -16.670  0.1707E-01  0.1434E-01  0.2965E-02  0.2737E-02  0.4751E-06  0.4848E-06  0.8342E-02  0.7580E-02  0.4584E-03  0.4004E-03  0.6955E-03  0.6421E-03  0.1023E-04  0.1102E-04  0.4072E-03  0.3741E-03  0.3007E-03  0.2585E-03
    -16.590  0.8376E-02  0.6232E-02  0.1943E-02  0.1658E-02  0.3645E-06  0.3497E-06  0.5107E-02  0.4261E-02  0.3005E-03  0.2417E-03  0.4596E-03  0.3907E-03  0.5156E-05  0.4881E-05  0.2936E-03  0.2509E-03  0.2159E-03  0.1728E-03
    -16.510  0.0000E+00  0.0000E+00  0.0000E+00  0.0000E+00  0.0000E+00  0.0000E+00  0.0000E+00  0.0000E+00  0.0000E+00  0.0000E+00  0.0000E+00  0.0000E+00  0.0000E+00  0.0000E+00  0.0000E+00  0.0000E+00  0.0000E+00  0.0000E+00
    -16.431  0.0000E+00  0.0000E+00  0.0000E+00  0.0000E+00  0.0000E+00  0.0000E+00  0.0000E+00  0.0000E+00  0.0000E+00  0.0000E+00  0.0000E+00  0.0000E+00  0.0000E+00  0.0000E+00  0.0000E+00  0.0000E+00  0.0000E+00  0.0000E+00
    -16.351  0.0000E+00  0.0000E+00  0.0000E+00  0.0000E+00  0.0000E+00  0.0000E+00  0.0000E+00  0.0000E+00  0.0000E+00  0.0000E+00  0.0000E+00  0.0000E+00  0.0000E+00  0.0000E+00  0.0000E+00  0.0000E+00  0.0000E+00  0.0000E+00
    -16.271  0.5982E-08  0.8347E-08  0.4573E-04  0.7602E-04  0.9369E-02  0.1416E-01  0.1586E-04  0.2638E-04  0.6259E-04  0.1031E-03  0.2009E-03  0.3210E-03  0.3006E-07  0.3940E-07  0.6018E-03  0.9616E-03  0.1870E-03  0.3081E-03
    -16.191  0.1117E-05  0.1386E-05  0.2308E-03  0.2636E-03  0.1065E-01  0.9971E-02  0.8751E-04  0.1009E-03  0.1529E-03  0.1673E-03  0.4651E-03  0.4896E-03  0.4632E-07  0.4076E-07  0.2570E-02  0.2667E-02  0.8267E-03  0.8881E-03
    -16.111  0.2077E-05  0.2108E-05  0.4105E-03  0.4316E-03  0.1121E-01  0.1041E-01  0.1563E-03  0.1645E-03  0.2676E-03  0.2737E-03  0.7917E-03  0.7876E-03  0.5831E-07  0.4945E-07  0.4101E-02  0.3999E-02  0.1339E-02  0.1346E-02
    -16.032  0.1094E-01  0.3461E-01  0.1637E-02  0.3751E-02  0.1527E-01  0.1844E-01  0.1564E-02  0.4519E-02  0.7120E-03  0.1268E-02  0.1660E-02  0.2474E-02  0.2986E-04  0.9803E-04  0.8507E-02  0.1152E-01  0.2870E-02  0.4098E-02
    -15.952  0.0000E+00  0.0000E+00  0.0000E+00  0.0000E+00  0.0000E+00  0.0000E+00  0.0000E+00  0.0000E+00  0.0000E+00  0.0000E+00  0.0000E+00  0.0000E+00  0.0000E+00  0.0000E+00  0.0000E+00  0.0000E+00  0.0000E+00  0.0000E+00
    -15.872  0.2163E-01  0.1708E-01  0.3956E-02  0.5295E-02  0.8751E-03  0.1304E-02  0.4468E-02  0.3459E-02  0.2444E-02  0.2909E-02  0.4584E-02  0.5931E-02  0.7035E-04  0.6054E-04  0.4725E-02  0.6236E-02  0.1833E-02  0.2344E-02
    -15.792  0.1652E-01  0.1371E-01  0.5056E-02  0.4234E-02  0.8966E-03  0.6455E-03  0.3287E-02  0.2783E-02  0.2930E-02  0.2217E-02  0.5585E-02  0.4239E-02  0.6015E-04  0.5019E-04  0.4686E-02  0.3153E-02  0.1762E-02  0.1220E-02
    -15.713  0.1159E-01  0.9127E-02  0.3293E-02  0.2509E-02  0.2774E-03  0.1289E-03  0.2553E-02  0.2203E-02  0.1927E-02  0.1369E-02  0.3393E-02  0.2422E-02  0.4354E-04  0.3434E-04  0.1635E-02  0.8275E-03  0.6756E-03  0.3758E-03
    -15.633  0.7831E-02  0.2166E-01  0.2057E-02  0.8345E-02  0.1842E-04  0.9926E-03  0.2234E-02  0.7370E-02  0.1361E-02  0.2047E-02  0.2287E-02  0.3258E-02  0.3086E-04  0.9567E-04  0.4450E-03  0.9723E-03  0.2578E-03  0.5240E-03
    -15.553  0.2264E-01  0.2013E-01  0.8733E-02  0.8546E-02  0.3697E-02  0.5180E-02  0.8724E-02  0.8714E-02  0.2653E-02  0.2345E-02  0.4259E-02  0.4005E-02  0.1072E-03  0.9228E-04  0.2401E-02  0.2843E-02  0.1048E-02  0.1165E-02
    -15.473  0.1942E-01  0.1537E-01  0.8608E-02  0.8877E-02  0.8245E-02  0.9397E-02  0.9463E-02  0.9212E-02  0.2905E-02  0.2577E-02  0.5053E-02  0.4789E-02  0.9589E-04  0.7359E-04  0.4748E-02  0.5533E-02  0.1849E-02  0.2175E-02
    -15.394  0.1177E-01  0.6806E-02  0.1735E-01  0.2161E-01  0.2867E-01  0.2441E-01  0.1271E-01  0.1209E-01  0.5890E-02  0.4983E-02  0.1378E-01  0.1211E-01  0.6643E-04  0.3844E-04  0.1329E-01  0.9997E-02  0.4973E-02  0.3811E-02
    -15.314  0.5771E-02  0.2455E-01  0.1932E-01  0.2088E-01  0.1709E-01  0.2871E-01  0.9574E-02  0.1102E-01  0.5204E-02  0.2061E-01  0.1270E-01  0.4892E-01  0.3511E-04  0.1943E-03  0.8573E-02  0.3216E-01  0.3627E-02  0.1288E-01
    -15.234  0.1575E-01  0.9139E-02  0.1737E-01  0.1529E-01  0.1332E-01  0.8241E-02  0.1111E-01  0.9712E-02  0.1309E-01  0.8920E-02  0.2913E-01  0.1952E-01  0.1354E-03  0.7459E-04  0.2589E-01  0.2287E-01  0.1082E-01  0.9885E-02
    -15.154  0.6484E-02  0.2664E-02  0.8583E-02  0.9516E-02  0.6235E-02  0.1456E-02  0.1065E-01  0.1044E-01  0.7601E-02  0.4105E-02  0.1569E-01  0.7736E-02  0.6092E-04  0.2191E-04  0.1545E-01  0.6874E-02  0.6661E-02  0.3543E-02
    -15.075  0.4371E-03  0.0000E+00  0.2208E-02  0.0000E+00  0.2601E-03  0.0000E+00  0.2240E-02  0.0000E+00  0.8270E-03  0.0000E+00  0.1465E-02  0.0000E+00  0.4023E-05  0.0000E+00  0.1388E-02  0.0000E+00  0.7659E-03  0.0000E+00
    -14.995  0.0000E+00  0.0000E+00  0.0000E+00  0.0000E+00  0.0000E+00  0.0000E+00  0.0000E+00  0.0000E+00  0.0000E+00  0.0000E+00  0.0000E+00  0.0000E+00  0.0000E+00  0.0000E+00  0.0000E+00  0.0000E+00  0.0000E+00  0.0000E+00
    -14.915  0.0000E+00  0.0000E+00  0.0000E+00  0.0000E+00  0.0000E+00  0.0000E+00  0.0000E+00  0.0000E+00  0.0000E+00  0.0000E+00  0.0000E+00  0.0000E+00  0.0000E+00  0.0000E+00  0.0000E+00  0.0000E+00  0.0000E+00  0.0000E+00
    -14.835  0.0000E+00  0.0000E+00  0.0000E+00  0.0000E+00  0.0000E+00  0.0000E+00  0.0000E+00  0.0000E+00  0.0000E+00  0.0000E+00  0.0000E+00  0.0000E+00  0.0000E+00  0.0000E+00  0.0000E+00  0.0000E+00  0.0000E+00  0.0000E+00
    -14.756  0.0000E+00  0.0000E+00  0.0000E+00  0.0000E+00  0.0000E+00  0.0000E+00  0.0000E+00  0.0000E+00  0.0000E+00  0.0000E+00  0.0000E+00  0.0000E+00  0.0000E+00  0.0000E+00  0.0000E+00  0.0000E+00  0.0000E+00  0.0000E+00
    -14.676  0.0000E+00  0.0000E+00  0.0000E+00  0.0000E+00  0.0000E+00  0.0000E+00  0.0000E+00  0.0000E+00  0.0000E+00  0.0000E+00  0.0000E+00  0.0000E+00  0.0000E+00  0.0000E+00  0.0000E+00  0.0000E+00  0.0000E+00  0.0000E+00
    -14.596  0.0000E+00  0.0000E+00  0.0000E+00  0.0000E+00  0.0000E+00  0.0000E+00  0.0000E+00  0.0000E+00  0.0000E+00  0.0000E+00  0.0000E+00  0.0000E+00  0.0000E+00  0.0000E+00  0.0000E+00  0.0000E+00  0.0000E+00  0.0000E+00
    -14.516  0.0000E+00  0.0000E+00  0.0000E+00  0.0000E+00  0.0000E+00  0.0000E+00  0.0000E+00  0.0000E+00  0.0000E+00  0.0000E+00  0.0000E+00  0.0000E+00  0.0000E+00  0.0000E+00  0.0000E+00  0.0000E+00  0.0000E+00  0.0000E+00
    -14.436  0.0000E+00  0.0000E+00  0.0000E+00  0.0000E+00  0.0000E+00  0.0000E+00  0.0000E+00  0.0000E+00  0.0000E+00  0.0000E+00  0.0000E+00  0.0000E+00  0.0000E+00  0.0000E+00  0.0000E+00  0.0000E+00  0.0000E+00  0.0000E+00
    -14.357  0.0000E+00  0.0000E+00  0.0000E+00  0.0000E+00  0.0000E+00  0.0000E+00  0.0000E+00  0.0000E+00  0.0000E+00  0.0000E+00  0.0000E+00  0.0000E+00  0.0000E+00  0.0000E+00  0.0000E+00  0.0000E+00  0.0000E+00  0.0000E+00