       N       E                     dE             d eps       ncg     rms          rms(c)
DAV:   1     0.394861168745E+03    0.39486E+03   -0.16381E+04   960   0.817E+02
DAV:   2     0.327931246503E+02   -0.36207E+03   -0.33365E+03  1152   0.162E+02
DAV:   3    -0.510775321611E+02   -0.83871E+02   -0.79846E+02  1424   0.794E+01
DAV:   4    -0.559093823871E+02   -0.48319E+01   -0.47438E+01  1344   0.265E+01
DAV:   5    -0.560516349862E+02   -0.14225E+00   -0.14203E+00  1312   0.449E+00    0.287E+01
DAV:   6    -0.118710881668E+03   -0.62659E+02   -0.32905E+02  1312   0.728E+01    0.625E+01
DAV:   7    -0.436966203707E+02    0.75014E+02   -0.12549E+02  1184   0.978E+01    0.188E+01
DAV:   8    -0.462595537477E+02   -0.25629E+01   -0.75157E+00  1328   0.112E+01    0.101E+01
DAV:   9    -0.478981880478E+02   -0.16386E+01   -0.15441E+00  1552   0.899E+00    0.445E+00
DAV:  10    -0.484823377589E+02   -0.58415E+00   -0.58081E-01  1408   0.486E+00    0.305E+00
DAV:  11    -0.487176368420E+02   -0.23530E+00   -0.13543E-01  1520   0.220E+00    0.329E+00
DAV:  12    -0.489825292899E+02   -0.26489E+00   -0.57514E-02  1424   0.207E+00    0.236E+00
DAV:  13    -0.491990062698E+02   -0.21648E+00   -0.12377E-01  1392   0.213E+00    0.794E-01
DAV:  14    -0.492177402389E+02   -0.18734E-01   -0.38866E-02  1248   0.103E+00    0.713E-01
DAV:  15    -0.492219966194E+02   -0.42564E-02   -0.10608E-02  1376   0.778E-01    0.249E-01
DAV:  16    -0.492227757908E+02   -0.77917E-03   -0.16311E-03  1456   0.324E-01    0.544E-02
DAV:  17    -0.492229776371E+02   -0.20185E-03   -0.19267E-04  1056   0.641E-02    0.365E-02
DAV:  18    -0.492234573903E+02   -0.47975E-03   -0.18992E-04  1104   0.736E-02    0.104E-02
DAV:  19    -0.492235962902E+02   -0.13890E-03   -0.35637E-05   880   0.232E-02    0.552E-03
DAV:  20    -0.492237022477E+02   -0.10596E-03   -0.26079E-05   768   0.197E-02    0.327E-03
DAV:  21    -0.492237156424E+02   -0.13395E-04   -0.50666E-05   880   0.218E-02
   1 F= -.49223716E+02 E0= -.49223716E+02  d E =-.492237E+02  mag=     6.0009
       N       E                     dE             d eps       ncg     rms          rms(c)
DAV:   1    -0.846002336765E+02   -0.35377E+02   -0.86931E+02  1296   0.157E+02    0.341E+01
DAV:   2    -0.641510864525E+02    0.20449E+02   -0.88178E+01  1440   0.591E+01    0.208E+01
DAV:   3    -0.659517323682E+02   -0.18006E+01   -0.14232E+02  1488   0.111E+02    0.236E+01
DAV:   4    -0.560628943495E+02    0.98888E+01   -0.46310E+01  1456   0.328E+01    0.999E+00
DAV:   5    -0.567904141511E+02   -0.72752E+00   -0.17424E+00  1472   0.611E+00    0.498E+00
DAV:   6    -0.568128041598E+02   -0.22390E-01   -0.71595E-01  1472   0.601E+00    0.133E+00
DAV:   7    -0.568025608053E+02    0.10243E-01   -0.13573E-01  1232   0.184E+00    0.603E-01
DAV:   8    -0.568007193283E+02    0.18415E-02   -0.20977E-02  1328   0.760E-01    0.456E-01
DAV:   9    -0.567984173068E+02    0.23020E-02   -0.86426E-03  1360   0.505E-01    0.201E-01
DAV:  10    -0.568000065939E+02   -0.15893E-02   -0.24704E-03  1088   0.255E-01    0.152E-01
DAV:  11    -0.568000219755E+02   -0.15382E-04   -0.24238E-03  1104   0.252E-01    0.970E-02
DAV:  12    -0.567999162027E+02    0.10577E-03   -0.17602E-03  1072   0.172E-01    0.707E-02
DAV:  13    -0.567969884171E+02    0.29278E-02   -0.31191E-03  1088   0.183E-01    0.611E-02
DAV:  14    -0.567954857355E+02    0.15027E-02   -0.37214E-04  1088   0.765E-02    0.451E-02
DAV:  15    -0.567940297594E+02    0.14560E-02   -0.13532E-04   896   0.644E-02    0.435E-02
DAV:  16    -0.567926534387E+02    0.13763E-02   -0.97454E-05   864   0.446E-02    0.364E-02
DAV:  17    -0.567911148946E+02    0.15385E-02   -0.23766E-04   928   0.612E-02    0.295E-02
DAV:  18    -0.567907756670E+02    0.33923E-03   -0.21250E-04   992   0.608E-02    0.159E-02
DAV:  19    -0.567907637110E+02    0.11956E-04   -0.78165E-05   864   0.426E-02
   2 F= -.56790764E+02 E0= -.56790764E+02  d E =-.756705E+01  mag=     5.9986
       N       E                     dE             d eps       ncg     rms          rms(c)
DAV:   1    -0.568556955826E+02   -0.64920E-01   -0.13769E+00  1344   0.660E+00    0.121E+00
DAV:   2    -0.568212310751E+02    0.34465E-01   -0.94270E-02  1248   0.249E+00    0.621E-01
DAV:   3    -0.568161496250E+02    0.50815E-02   -0.34755E-02  1328   0.171E+00    0.451E-01
DAV:   4    -0.568122747000E+02    0.38749E-02   -0.17203E-02  1424   0.131E+00    0.113E-01
DAV:   5    -0.568118897261E+02    0.38497E-03   -0.15409E-03  1264   0.418E-01    0.536E-02
DAV:   6    -0.568118557223E+02    0.34004E-04   -0.17395E-04   816   0.684E-02
   3 F= -.56811856E+02 E0= -.56811856E+02  d E =-.758814E+01  mag=     5.9994
       N       E                     dE             d eps       ncg     rms          rms(c)
DAV:   1    -0.568601968160E+02   -0.48307E-01   -0.48970E+00  1056   0.738E+00    0.744E-01
DAV:   2    -0.568891147807E+02   -0.28918E-01   -0.44332E-01  1344   0.368E+00    0.579E-01
DAV:   3    -0.568827036069E+02    0.64112E-02   -0.21965E-02  1280   0.153E+00    0.334E-01
DAV:   4    -0.568795038894E+02    0.31997E-02   -0.79482E-03  1408   0.792E-01    0.217E-01
DAV:   5    -0.568780189818E+02    0.14849E-02   -0.62295E-03  1296   0.455E-01    0.556E-02
DAV:   6    -0.568777730805E+02    0.24590E-03   -0.49184E-04  1136   0.103E-01    0.403E-02
DAV:   7    -0.568775361910E+02    0.23689E-03   -0.20280E-04   800   0.903E-02    0.187E-02
DAV:   8    -0.568775003495E+02    0.35842E-04   -0.94000E-05   768   0.471E-02
   4 F= -.56877500E+02 E0= -.56877500E+02  d E =-.656446E-01  mag=     5.9999
       N       E                     dE             d eps       ncg     rms          rms(c)
DAV:   1    -0.568806313107E+02   -0.30951E-02   -0.86908E-01   992   0.311E+00    0.311E-01
DAV:   2    -0.568854906984E+02   -0.48594E-02   -0.77932E-02  1392   0.154E+00    0.243E-01
DAV:   3    -0.568842548437E+02    0.12359E-02   -0.38814E-03  1264   0.638E-01    0.140E-01
DAV:   4    -0.568836531405E+02    0.60170E-03   -0.14707E-03  1408   0.336E-01    0.917E-02
DAV:   5    -0.568833143065E+02    0.33883E-03   -0.11182E-03  1344   0.194E-01    0.246E-02
DAV:   6    -0.568831989666E+02    0.11534E-03   -0.73551E-05   720   0.440E-02    0.186E-02
DAV:   7    -0.568829308691E+02    0.26810E-03   -0.92079E-05   768   0.697E-02    0.114E-02
DAV:   8    -0.568827076264E+02    0.22324E-03   -0.66446E-05   848   0.361E-02    0.101E-02
DAV:   9    -0.568826634650E+02    0.44161E-04   -0.28769E-04  1088   0.537E-02
   5 F= -.56882663E+02 E0= -.56882663E+02  d E =-.708077E-01  mag=     6.0000
       N       E                     dE             d eps       ncg     rms          rms(c)
DAV:   1    -0.568974710902E+02   -0.14763E-01   -0.16107E+00  1072   0.541E+00    0.841E-01
DAV:   2    -0.568886709054E+02    0.88002E-02   -0.10100E-01  1120   0.129E+00    0.404E-01
DAV:   3    -0.568856892917E+02    0.29816E-02   -0.89526E-03  1264   0.428E-01    0.202E-01
DAV:   4    -0.568848284627E+02    0.86083E-03   -0.36100E-03  1296   0.394E-01    0.765E-02
DAV:   5    -0.568847780953E+02    0.50367E-04   -0.57500E-04  1104   0.246E-01
   6 F= -.56884778E+02 E0= -.56884778E+02  d E =-.211463E-02  mag=     6.0000
       N       E                     dE             d eps       ncg     rms          rms(c)
DAV:   1    -0.568947899899E+02   -0.99615E-02   -0.34716E-01  1088   0.257E+00    0.388E-01
DAV:   2    -0.568929481588E+02    0.18418E-02   -0.22190E-02  1072   0.620E-01    0.184E-01
DAV:   3    -0.568923334282E+02    0.61473E-03   -0.19104E-03  1152   0.196E-01    0.956E-02
DAV:   4    -0.568922567289E+02    0.76699E-04   -0.93362E-04  1136   0.237E-01
   7 F= -.56892257E+02 E0= -.56892257E+02  d E =-.959326E-02  mag=     6.0000
