 vasp.5.4.4.18Apr17-6-g9f103f2a35 (build May  1 2020 15:48:39) complex           
 executed on             LinuxGNU date 2020.06.17  05:02:54
 running on   16 total cores
 distrk:  each k-point on   16 cores,    1 groups
 distr:  one band on NCORES_PER_BAND=   1 cores,   16 groups


--------------------------------------------------------------------------------------------------------


 INCAR:
 POTCAR:   PAW_PBE Cr 06Sep2000                   
 POTCAR:   PAW_PBE Si 05Jan2001                   
 POTCAR:    PAW_PBE S 17Jan2003                   

 ----------------------------------------------------------------------------- 
|                                                                             |
|           W    W    AA    RRRRR   N    N  II  N    N   GGGG   !!!           |
|           W    W   A  A   R    R  NN   N  II  NN   N  G    G  !!!           |
|           W    W  A    A  R    R  N N  N  II  N N  N  G       !!!           |
|           W WW W  AAAAAA  RRRRR   N  N N  II  N  N N  G  GGG   !            |
|           WW  WW  A    A  R   R   N   NN  II  N   NN  G    G                |
|           W    W  A    A  R    R  N    N  II  N    N   GGGG   !!!           |
|                                                                             |
|      For optimal performance we recommend to set                            |
|        NCORE= 4 - approx SQRT( number of cores)                             |
|      NCORE specifies how many cores store one orbital (NPAR=cpu/NCORE).     |
|      This setting can  greatly improve the performance of VASP for DFT.     |
|      The default,   NCORE=1            might be grossly inefficient         |
|      on modern multi-core architectures or massively parallel machines.     |
|      Do your own testing !!!!                                               |
|      Unfortunately you need to use the default for GW and RPA calculations. |
|      (for HF NCORE is supported but not extensively tested yet)             |
|                                                                             |
 ----------------------------------------------------------------------------- 


 ----------------------------------------------------------------------------- 
|                                                                             |
|  ADVICE TO THIS USER RUNNING 'VASP/VAMP'   (HEAR YOUR MASTER'S VOICE ...):  |
|                                                                             |
|      You have switched on vdW-DFT.                                          |
|      This routine was written and supplied by Jiri Klimes.                  |
|      We recommed that you carefully read and cite the following             |
|      publication                                                            |
|      J. Klimes, D.R. Bowler, A. Michelides                                  |
|        J. Phys.: Cond Matt. 22 022201 (2010)                                |
|      J. Klimes, D.R. Bowler, A. Michelides                                  |
|        Phys. Rev. B. 83, 195131 (2011)                                      |
|      and references therein.                                                |
|                                                                             |
 ----------------------------------------------------------------------------- 

 POTCAR:   PAW_PBE Cr 06Sep2000                   
   VRHFIN =Cr : d5 s1                                                           
   LEXCH  = PE                                                                  
   EATOM  =   276.9744 eV,   20.3570 Ry                                         
                                                                                
   TITEL  = PAW_PBE Cr 06Sep2000                                                
   LULTRA =        F    use ultrasoft PP ?                                      
   IUNSCR =        1    unscreen: 0-lin 1-nonlin 2-no                           
   RPACOR =    2.080    partial core radius                                     
   POMASS =   51.996; ZVAL   =    6.000    mass and valenz                      
   RCORE  =    2.500    outmost cutoff radius                                   
   RWIGS  =    2.500; RWIGS  =    1.323    wigner-seitz radius (au A)           
   ENMAX  =  227.082; ENMIN  =  170.311 eV                                      
   RCLOC  =    1.721    cutoff for local pot                                    
   LCOR   =        T    correct aug charges                                     
   LPAW   =        T    paw PP                                                  
   EAUG   =  402.108                                                            
   DEXC   =    -.035                                                            
   RMAX   =    3.060    core radius for proj-oper                               
   RAUG   =    1.300    factor for augmentation sphere                          
   RDEP   =    2.609    radius for radial grids                                 
   QCUT   =   -4.085; QGAM   =    8.171    optimization parameters              
                                                                                
   Description                                                                  
     l     E      TYP  RCUT    TYP  RCUT                                        
     2   .000     23  2.500                                                     
     2   .000     23  2.500                                                     
     0   .000     23  2.500                                                     
     0   .000     23  2.500                                                     
     1  -.400     23  2.500                                                     
     1  2.000     23  2.500                                                     
     3   .000      7   .000                                                     
  local pseudopotential read in
  partial core-charges read in
  atomic valenz-charges read in
  non local Contribution for L=           2  read in
    real space projection operators read in
  non local Contribution for L=           2  read in
    real space projection operators read in
  non local Contribution for L=           0  read in
    real space projection operators read in
  non local Contribution for L=           0  read in
    real space projection operators read in
  non local Contribution for L=           1  read in
    real space projection operators read in
  non local Contribution for L=           1  read in
    real space projection operators read in
    PAW grid and wavefunctions read in

   number of l-projection  operators is LMAX  =           6
   number of lm-projection operators is LMMAX =          18

 POTCAR:   PAW_PBE Si 05Jan2001                   
   VRHFIN =Si: s2p2                                                             
   LEXCH  = PE                                                                  
   EATOM  =   103.0669 eV,    7.5752 Ry                                         
                                                                                
   TITEL  = PAW_PBE Si 05Jan2001                                                
   LULTRA =        F    use ultrasoft PP ?                                      
   IUNSCR =        1    unscreen: 0-lin 1-nonlin 2-no                           
   RPACOR =    1.500    partial core radius                                     
   POMASS =   28.085; ZVAL   =    4.000    mass and valenz                      
   RCORE  =    1.900    outmost cutoff radius                                   
   RWIGS  =    2.480; RWIGS  =    1.312    wigner-seitz radius (au A)           
   ENMAX  =  245.345; ENMIN  =  184.009 eV                                      
   ICORE  =        2    local potential                                         
   LCOR   =        T    correct aug charges                                     
   LPAW   =        T    paw PP                                                  
   EAUG   =  322.069                                                            
   DEXC   =    -.007                                                            
   RMAX   =    2.944    core radius for proj-oper                               
   RAUG   =    1.300    factor for augmentation sphere                          
   RDEP   =    1.993    radius for radial grids                                 
   QCUT   =   -4.246; QGAM   =    8.493    optimization parameters              
                                                                                
   Description                                                                  
     l     E      TYP  RCUT    TYP  RCUT                                        
     0   .000     23  1.900                                                     
     0   .000     23  1.900                                                     
     1   .000     23  1.900                                                     
     1   .000     23  1.900                                                     
     2   .000      7  1.900                                                     
  local pseudopotential read in
  partial core-charges read in
  atomic valenz-charges read in
  non local Contribution for L=           0  read in
    real space projection operators read in
  non local Contribution for L=           0  read in
    real space projection operators read in
  non local Contribution for L=           1  read in
    real space projection operators read in
  non local Contribution for L=           1  read in
    real space projection operators read in
    PAW grid and wavefunctions read in

   number of l-projection  operators is LMAX  =           4
   number of lm-projection operators is LMMAX =           8

 POTCAR:    PAW_PBE S 17Jan2003                   
   VRHFIN =S : s2p4                                                             
   LEXCH  = PE                                                                  
   EATOM  =   276.8230 eV,   20.3459 Ry                                         
                                                                                
   TITEL  = PAW_PBE S 17Jan2003                                                 
   LULTRA =        F    use ultrasoft PP ?                                      
   IUNSCR =        1    unscreen: 0-lin 1-nonlin 2-no                           
   RPACOR =    1.500    partial core radius                                     
   POMASS =   32.066; ZVAL   =    6.000    mass and valenz                      
   RCORE  =    1.900    outmost cutoff radius                                   
   RWIGS  =    2.200; RWIGS  =    1.164    wigner-seitz radius (au A)           
   ENMAX  =  280.000; ENMIN  =  194.016 eV                                      
   ICORE  =        2    local potential                                         
   LCOR   =        T    correct aug charges                                     
   LPAW   =        T    paw PP                                                  
   EAUG   =  335.092                                                            
   DEXC   =     .000                                                            
   RMAX   =    2.867    core radius for proj-oper                               
   RAUG   =    1.300    factor for augmentation sphere                          
   RDEP   =    1.954    radius for radial grids                                 
   QCUT   =   -4.360; QGAM   =    8.721    optimization parameters              
                                                                                
   Description                                                                  
     l     E      TYP  RCUT    TYP  RCUT                                        
     0   .000     23  1.900                                                     
     0   .000     23  1.900                                                     
     1   .000     23  1.900                                                     
     1   .000     23  1.900                                                     
     2   .000     23  1.900                                                     
  local pseudopotential read in
  partial core-charges read in
  atomic valenz-charges read in
  non local Contribution for L=           0  read in
    real space projection operators read in
  non local Contribution for L=           0  read in
    real space projection operators read in
  non local Contribution for L=           1  read in
    real space projection operators read in
  non local Contribution for L=           1  read in
    real space projection operators read in
    PAW grid and wavefunctions read in

   number of l-projection  operators is LMAX  =           4
   number of lm-projection operators is LMMAX =           8

 Optimization of the real space projectors (new method)

 maximal supplied QI-value         = 15.12
 optimisation between [QCUT,QGAM] = [ 11.64, 23.28] = [ 37.95,151.78] Ry 
 Optimized for a Real-space Cutoff    1.49 Angstroem

   l    n(q)    QCUT    max X(q) W(low)/X(q) W(high)/X(q)  e(spline) 
   2      9    11.641     4.777    0.25E-04    0.21E-05    0.63E-07
   2      9    11.641    31.132    0.13E-03    0.22E-03    0.64E-06
   0     10    11.641    20.416    0.11E-04    0.74E-05    0.19E-07
   0     10    11.641    45.408    0.10E-03    0.85E-04    0.30E-06
   1     10    11.641     7.848    0.22E-04    0.23E-04    0.56E-07
   1     10    11.641     9.895    0.85E-04    0.54E-04    0.16E-06
 Optimization of the real space projectors (new method)

 maximal supplied QI-value         = 19.84
 optimisation between [QCUT,QGAM] = [ 11.51, 23.22] = [ 37.09,150.92] Ry 
 Optimized for a Real-space Cutoff    1.21 Angstroem

   l    n(q)    QCUT    max X(q) W(low)/X(q) W(high)/X(q)  e(spline) 
   0      8    11.508     8.708    0.18E-04    0.44E-05    0.47E-08
   0      8    11.508   106.241    0.70E-04    0.15E-03    0.51E-07
   1      8    11.508     5.901    0.63E-05    0.23E-04    0.21E-07
   1      8    11.508    73.241    0.15E-03    0.36E-04    0.79E-07
 Optimization of the real space projectors (new method)

 maximal supplied QI-value         = 19.84
 optimisation between [QCUT,QGAM] = [ 11.51, 23.22] = [ 37.09,150.92] Ry 
 Optimized for a Real-space Cutoff    1.21 Angstroem

   l    n(q)    QCUT    max X(q) W(low)/X(q) W(high)/X(q)  e(spline) 
   0      8    11.508     5.487    0.18E-04    0.22E-05    0.47E-08
   0      8    11.508    85.627    0.96E-04    0.18E-03    0.54E-07
   1      8    11.508     3.530    0.17E-04    0.28E-04    0.21E-07
   1      8    11.508    42.714    0.18E-03    0.63E-04    0.92E-07

 ----------------------------------------------------------------------------- 
|                                                                             |
|  ADVICE TO THIS USER RUNNING 'VASP/VAMP'   (HEAR YOUR MASTER'S VOICE ...):  |
|                                                                             |
|      You enforced a specific xc-type in the INCAR file,                     |
|      a different type was found on the POTCAR file                          |
|          I HOPE YOU KNOW, WHAT YOU ARE  DOING                               |
|                                                                             |
 ----------------------------------------------------------------------------- 

 PAW_PBE Cr 06Sep2000                   :
 energy of atom  1       EATOM= -276.9744
 kinetic energy error for atom=    0.0010 (will be added to EATOM!!)
 PAW_PBE Si 05Jan2001                   :
 energy of atom  2       EATOM= -103.0669
 kinetic energy error for atom=    0.0005 (will be added to EATOM!!)
  PAW_PBE S 17Jan2003                   :
 energy of atom  3       EATOM= -276.8230
 kinetic energy error for atom=    0.0016 (will be added to EATOM!!)


 POSCAR: Cr2 Si2 S6                              
  positions in direct lattice
  velocities in cartesian coordinates
  No initial velocities read in
 exchange correlation table for  LEXCH =       42
   RHO(1)=    0.500       N(1)  =     2000
   RHO(2)=  100.500       N(2)  =     4000



--------------------------------------------------------------------------------------------------------


 ion  position               nearest neighbor table
   1  0.333  0.333  0.500-   6 2.78   5 2.78   7 2.78   8 2.78  10 2.78   9 2.78
   2  0.667  0.667  0.500-   9 2.78   8 2.78  10 2.78   5 2.78   7 2.78   6 2.78
   3  0.000  0.000  0.448-   4 2.43   8 2.63  10 2.63   9 2.63
   4  0.000  0.000  0.552-   3 2.43   5 2.63   7 2.63   6 2.63
   5  0.626  0.000  0.574-   4 2.63   1 2.78   2 2.78
   6  0.000  0.373  0.574-   4 2.63   1 2.78   2 2.78
   7  0.373  0.626  0.574-   4 2.63   1 2.78   2 2.78
   8  0.374  1.000  0.426-   3 2.63   2 2.78   1 2.78
   9  1.000  0.627  0.426-   3 2.63   2 2.78   1 2.78
  10  0.627  0.374  0.426-   3 2.63   2 2.78   1 2.78

  LATTYP: Found a hexagonal cell.
 ALAT       =     6.9077769333
 C/A-ratio  =     3.3939410937
  
  Lattice vectors:
  
 A1 = (   3.4538890000,  -5.9823100000,   0.0000000000)
 A2 = (  -6.9077770000,   0.0000000000,   0.0000000000)
 A3 = (   0.0000000000,   0.0000000000, -23.4445880000)


Analysis of symmetry for initial positions (statically):
=====================================================================
 Subroutine PRICEL returns:
 Original cell was already a primitive cell.
 

 Routine SETGRP: Setting up the symmetry group for a 
 hexagonal supercell.


 Subroutine GETGRP returns: Found  6 space group operations
 (whereof  6 operations were pure point group operations)
 out of a pool of 24 trial point group operations.


The static configuration has the point symmetry S_6 .


Analysis of symmetry for dynamics (positions and initial velocities):
=====================================================================
 Subroutine PRICEL returns:
 Original cell was already a primitive cell.
 

 Routine SETGRP: Setting up the symmetry group for a 
 hexagonal supercell.


 Subroutine GETGRP returns: Found  6 space group operations
 (whereof  6 operations were pure point group operations)
 out of a pool of 24 trial point group operations.


The dynamic configuration has the point symmetry S_6 .


Analysis of constrained symmetry for selective dynamics:
=====================================================================
 Subroutine PRICEL returns:
 Original cell was already a primitive cell.
 

 Routine SETGRP: Setting up the symmetry group for a 
 hexagonal supercell.


 Subroutine GETGRP returns: Found  6 space group operations
 (whereof  6 operations were pure point group operations)
 out of a pool of 24 trial point group operations.


The constrained configuration has the point symmetry S_6 .


Analysis of structural, dynamic, and magnetic symmetry:
=====================================================================
 Subroutine PRICEL returns:
 Original cell was already a primitive cell.
 

 Routine SETGRP: Setting up the symmetry group for a 
 hexagonal supercell.


 Subroutine GETGRP returns: Found  6 space group operations
 (whereof  6 operations were pure point group operations)
 out of a pool of 24 trial point group operations.


The magnetic configuration has the point symmetry S_6 .


 Subroutine INISYM returns: Found  6 space group operations
 (whereof  6 operations are pure point group operations),
 and found     1 'primitive' translations



 KPOINTS: Kpoints from vasprun.xml                

Automatic generation of k-mesh.
Space group operators:
 irot       det(A)        alpha          n_x          n_y          n_z        tau_x        tau_y        tau_z
    1     1.000000     0.000000     1.000000     0.000000     0.000000     0.000000     0.000000     0.000000
    2    -1.000000     0.000000     1.000000     0.000000     0.000000     0.000000     0.000000     0.000000
    3     1.000000   120.000000     0.000000     0.000000     1.000000     0.000000     0.000000     0.000000
    4    -1.000000   120.000000     0.000000     0.000000     1.000000     0.000000     0.000000     0.000000
    5     1.000000   120.000000     0.000000     0.000000    -1.000000     0.000000     0.000000     0.000000
    6    -1.000000   120.000000     0.000000     0.000000    -1.000000     0.000000     0.000000     0.000000
 
 Subroutine IBZKPT returns following result:
 ===========================================
 
 Found      5 irreducible k-points:
 
 Following reciprocal coordinates:
            Coordinates               Weight
  0.000000  0.000000  0.000000      1.000000
  0.200000  0.000000  0.000000      6.000000
  0.400000  0.000000  0.000000      6.000000
  0.400000  0.200000  0.000000      6.000000
 -0.400000  0.200000  0.000000      6.000000
 
 Following cartesian coordinates:
            Coordinates               Weight
  0.000000  0.000000  0.000000      1.000000
  0.028953 -0.016716  0.000000      6.000000
  0.057906 -0.033432  0.000000      6.000000
  0.057906  0.000000  0.000000      6.000000
 -0.057906  0.066864  0.000000      6.000000
 
 TETIRR: Found     15 inequivalent tetrahedra from      150


--------------------------------------------------------------------------------------------------------




 Dimension of arrays:
   k-points           NKPTS =      5   k-points in BZ     NKDIM =      5   number of bands    NBANDS=     48
   number of dos      NEDOS =    301   number of ions     NIONS =     10
   non local maximal  LDIM  =      6   non local SUM 2l+1 LMDIM =     18
   total plane-waves  NPLWV = 524880
   max r-space proj   IRMAX =   7543   max aug-charges    IRDMAX=  27873
   dimension x,y,z NGX =    54 NGY =   54 NGZ =  180
   dimension x,y,z NGXF=   108 NGYF=  108 NGZF=  360
   support grid    NGXF=   108 NGYF=  108 NGZF=  360
   ions per type =               2   2   6
   NGX,Y,Z   is equivalent  to a cutoff of  13.00, 13.00, 12.76 a.u.
   NGXF,Y,Z  is equivalent  to a cutoff of  25.99, 25.99, 25.53 a.u.

 SYSTEM =  unknown system                          
 POSCAR =  Cr2 Si2 S6                              

 Startparameter for this run:
   NWRITE =      2    write-flag & timer
   PREC   = accura    normal or accurate (medium, high low for compatibility)
   ISTART =      0    job   : 0-new  1-cont  2-samecut
   ICHARG =      2    charge: 1-file 2-atom 10-const
   ISPIN  =      2    spin polarized calculation?
   LNONCOLLINEAR =      F non collinear calculations
   LSORBIT =      F    spin-orbit coupling
   INIWAV =      1    electr: 0-lowe 1-rand  2-diag
   LASPH  =      F    aspherical Exc in radial PAW
   METAGGA=      F    non-selfconsistent MetaGGA calc.

 Electronic Relaxation 1
   ENCUT  =  520.0 eV  38.22 Ry    6.18 a.u.  12.84 12.84 43.59*2*pi/ulx,y,z
   ENINI  =  520.0     initial cutoff
   ENAUG  =  402.1 eV  augmentation charge cutoff
   NELM   =    400;   NELMIN=  2; NELMDL=  0     # of ELM steps 
   EDIFF  = 0.1E-03   stopping-criterion for ELM
   LREAL  =      T    real-space projection
   NLSPLINE    = F    spline interpolate recip. space projectors
   LCOMPAT=      F    compatible to vasp.4.4
   GGA_COMPAT  = T    GGA compatible to vasp.4.4-vasp.4.6
   LMAXPAW     = -100 max onsite density
   LMAXMIX     =    2 max onsite mixed and CHGCAR
   VOSKOWN=      0    Vosko Wilk Nusair interpolation
   ROPT   =   -0.00025  -0.00025  -0.00025
 Ionic relaxation
   EDIFFG = 0.1E-02   stopping-criterion for IOM
   NSW    =     99    number of steps for IOM
   NBLOCK =      1;   KBLOCK =     99    inner block; outer block 
   IBRION =      2    ionic relax: 0-MD 1-quasi-New 2-CG
   NFREE  =      1    steps in history (QN), initial steepest desc. (CG)
   ISIF   =      3    stress and relaxation
   IWAVPR =     11    prediction:  0-non 1-charg 2-wave 3-comb
   ISYM   =      2    0-nonsym 1-usesym 2-fastsym
   LCORR  =      T    Harris-Foulkes like correction to forces

   POTIM  = 0.5000    time-step for ionic-motion
   TEIN   =    0.0    initial temperature
   TEBEG  =    0.0;   TEEND  =   0.0 temperature during run
   SMASS  =  -3.00    Nose mass-parameter (am)
   estimated Nose-frequenzy (Omega)   =  0.10E-29 period in steps =****** mass=  -0.109E-26a.u.
   SCALEE = 1.0000    scale energy and forces
   NPACO  =    256;   APACO  = 16.0  distance and # of slots for P.C.
   PSTRESS=    0.0 pullay stress

  Mass of Ions in am
   POMASS =  52.00 28.09 32.07
  Ionic Valenz
   ZVAL   =   6.00  4.00  6.00
  Atomic Wigner-Seitz radii
   RWIGS  =  -1.00 -1.00 -1.00
  virtual crystal weights 
   VCA    =   1.00  1.00  1.00
   NELECT =      56.0000    total number of electrons
   NUPDOWN=      -1.0000    fix difference up-down

 DOS related values:
   EMIN   =  10.00;   EMAX   =-10.00  energy-range for DOS
   EFERMI =   0.00
   ISMEAR =    -5;   SIGMA  =   0.05  broadening in eV -4-tet -1-fermi 0-gaus

 Electronic relaxation 2 (details)
   IALGO  =     38    algorithm
   LDIAG  =      T    sub-space diagonalisation (order eigenvalues)
   LSUBROT=      F    optimize rotation matrix (better conditioning)
   TURBO    =      0    0=normal 1=particle mesh
   IRESTART =      0    0=no restart 2=restart with 2 vectors
   NREBOOT  =      0    no. of reboots
   NMIN     =      0    reboot dimension
   EREF     =   0.00    reference energy to select bands
   IMIX   =      4    mixing-type and parameters
     AMIX     =   0.40;   BMIX     =  1.00
     AMIX_MAG =   1.60;   BMIX_MAG =  1.00
     AMIN     =   0.01
     WC   =   100.;   INIMIX=   1;  MIXPRE=   1;  MAXMIX= -45

 Intra band minimization:
   WEIMIN = 0.0010     energy-eigenvalue tresh-hold
   EBREAK =  0.52E-06  absolut break condition
   DEPER  =   0.30     relativ break condition  

   TIME   =   0.40     timestep for ELM

  volume/ion in A,a.u.               =      96.88       653.80
  Fermi-wavevector in a.u.,A,eV,Ry     =   0.632976  1.196152  5.451299  0.400659
  Thomas-Fermi vector in A             =   1.696476

 Write flags
   LWAVE        =      F    write WAVECAR
   LDOWNSAMPLE  =      F    k-point downsampling of WAVECAR
   LCHARG       =      T    write CHGCAR
   LVTOT        =      F    write LOCPOT, total local potential
   LVHAR        =      F    write LOCPOT, Hartree potential only
   LELF         =      F    write electronic localiz. function (ELF)
   LORBIT       =     11    0 simple, 1 ext, 2 COOP (PROOUT), +10 PAW based schemes


 Dipole corrections
   LMONO  =      F    monopole corrections only (constant potential shift)
   LDIPOL =      F    correct potential (dipole corrections)
   IDIPOL =      0    1-x, 2-y, 3-z, 4-all directions 
   EPSILON=  1.0000000 bulk dielectric constant

 Exchange correlation treatment:
   GGA     =    BO    GGA type
   LEXCH   =    42    internal setting for exchange type
   VOSKOWN=      0    Vosko Wilk Nusair interpolation
   LHFCALC =     F    Hartree Fock is set to
   LHFONE  =     F    Hartree Fock one center treatment
   AEXX    =    0.0000 exact exchange contribution

 vdW DFT:
   LUSE_VDW   =     T    switch on vdW DFT
   Zab_VDW    =-.8491    correlation parameter
   PARAM1     =0.1833
   PARAM2     =0.2200
   PARAM3     =0.0000
   -- rVV10 --
   BPARAM     = 6.3000
   CPARAM     = 0.0093

 Linear response parameters
   LEPSILON=     F    determine dielectric tensor
   LRPA    =     F    only Hartree local field effects (RPA)
   LNABLA  =     F    use nabla operator in PAW spheres
   LVEL    =     F    velocity operator in full k-point grid
   LINTERFAST=   F  fast interpolation
   KINTER  =     0    interpolate to denser k-point grid
   CSHIFT  =0.1000    complex shift for real part using Kramers Kronig
   OMEGAMAX=  -1.0    maximum frequency
   DEG_THRESHOLD= 0.2000000E-02 threshold for treating states as degnerate
   RTIME   =   -0.100 relaxation time in fs
  (WPLASMAI=    0.000 imaginary part of plasma frequency in eV, 0.658/RTIME)
   DFIELD  = 0.0000000 0.0000000 0.0000000 field for delta impulse in time

 Orbital magnetization related:
   ORBITALMAG=     F  switch on orbital magnetization
   LCHIMAG   =     F  perturbation theory with respect to B field
   DQ        =  0.001000  dq finite difference perturbation B field
   LLRAUG    =     F  two centre corrections for induced B field



--------------------------------------------------------------------------------------------------------


 conjugate gradient relaxation of ions
   using selective dynamics as specified on POSCAR
 charge density and potential will be updated during run
 spin polarized calculation
 Variant of blocked Davidson
 Davidson routine will perform the subspace rotation
 perform sub-space diagonalisation
    after iterative eigenvector-optimisation
 modified Broyden-mixing scheme, WC =      100.0
 initial mixing is a Kerker type mixing with AMIX =  0.4000 and BMIX =      1.0000
 Hartree-type preconditioning will be used
 using additional bands           20
 real space projection scheme for non local part
 use partial core corrections
 calculate Harris-corrections to forces   (improved forces if not selfconsistent)
 use gradient corrections 
 use of overlap-Matrix (Vanderbilt PP)
 Fermi weights with tetrahedron method with Bloechl corrections


--------------------------------------------------------------------------------------------------------


  energy-cutoff  :      520.00
  volume of cell :      968.84
      direct lattice vectors                 reciprocal lattice vectors
     6.907777000 -0.000000000  0.000000000     0.144764372 -0.083579742  0.000000000
     3.453888000  5.982310000  0.000000000     0.000000000  0.167159509 -0.000000000
     0.000000000  0.000000000 23.444588000    -0.000000000  0.000000000  0.042653767

  length of vectors
     6.907777000  6.907776433 23.444588000     0.167159495  0.167159509  0.042653767



 k-points in units of 2pi/SCALE and weight: Kpoints from vasprun.xml                
   0.00000000  0.00000000  0.00000000       0.040
   0.02895287 -0.01671595  0.00000000       0.240
   0.05790575 -0.03343190  0.00000000       0.240
   0.05790575  0.00000000  0.00000000       0.240
  -0.05790575  0.06686380  0.00000000       0.240

 k-points in reciprocal lattice and weights: Kpoints from vasprun.xml                
   0.00000000  0.00000000  0.00000000       0.040
   0.20000000  0.00000000  0.00000000       0.240
   0.40000000  0.00000000  0.00000000       0.240
   0.40000000  0.20000000  0.00000000       0.240
  -0.40000000  0.20000000  0.00000000       0.240

 position of ions in fractional coordinates (direct lattice) 
   0.33333300  0.33333300  0.49992500
   0.66666700  0.66666700  0.50007500
   0.00000000  0.00000000  0.44821600
   0.00000000  0.00000000  0.55178400
   0.62635700  0.00042000  0.57375200
   0.00042000  0.37322400  0.57375200
   0.37322400  0.62635700  0.57375200
   0.37364300  0.99958000  0.42624800
   0.99958000  0.62677600  0.42624800
   0.62677600  0.37364300  0.42624800

 position of ions in cartesian coordinates  (Angst):
   3.45388488  1.99410134 11.72053566
   6.90778012  3.98820866 11.72405234
   0.00000000  0.00000000 10.50823946
   0.00000000  0.00000000 12.93634854
   4.32818511  0.00251257 13.45137925
   1.29197516  2.23274167 13.45137925
   4.74151509  3.74706174 13.45137925
   6.03347989  5.97979743  9.99320875
   9.06968984  3.74956833  9.99320875
   5.62014991  2.23524826  9.99320875



--------------------------------------------------------------------------------------------------------


 k-point  1 :   0.0000 0.0000 0.0000  plane waves:   26073
 k-point  2 :   0.2000 0.0000 0.0000  plane waves:   26070
 k-point  3 :   0.4000 0.0000 0.0000  plane waves:   26086
 k-point  4 :   0.4000 0.2000 0.0000  plane waves:   26085
 k-point  5 :  -0.4000 0.2000 0.0000  plane waves:   26115

 maximum and minimum number of plane-waves per node :     26115    26070

 maximum number of plane-waves:     26115
 maximum index in each direction: 
   IXMAX=   13   IYMAX=   12   IZMAX=   43
   IXMIN=  -13   IYMIN=  -13   IZMIN=  -43


 serial   3D FFT for wavefunctions
 parallel 3D FFT for charge:
    minimum data exchange during FFTs selected (reduces bandwidth)


 total amount of memory used by VASP MPI-rank0   126065. kBytes
=======================================================================

   base      :      30000. kBytes
   nonlr-proj:       5770. kBytes
   fftplans  :      11247. kBytes
   grid      :      66142. kBytes
   one-center:        311. kBytes
   wavefun   :      12595. kBytes

     INWAV:  cpu time    0.0000: real time    0.0004
 Broyden mixing: mesh for mixing (old mesh)
   NGX = 25   NGY = 25   NGZ = 87
  (NGX  =108   NGY  =108   NGZ  =360)
  gives a total of  54375 points

 initial charge density was supplied:
 charge density of overlapping atoms calculated
 number of electron      56.0000000 magnetization      14.8000000
 keeping initial charge density in first step


--------------------------------------------------------------------------------------------------------


 Maximum index for non-local projection operator         7247
 Maximum index for augmentation-charges         1662 (set IRDMAX)


--------------------------------------------------------------------------------------------------------


 First call to EWALD:  gamma=   0.179
 Maximum number of real-space cells 4x 4x 1
 Maximum number of reciprocal cells 2x 2x 6

    FEWALD:  cpu time    0.0040: real time    0.0015


--------------------------------------- Iteration      1(   1)  ---------------------------------------


vdW kernel read from vdw_kernel.bindat
  0.0000  0.2424  0.5071  0.7962  1.1119  1.4567  1.8333  2.2446  2.6937  3.1842
  3.7199  4.3049  4.9438  5.6415  6.4036  7.2358  8.1446  9.1372 10.2212 11.4050
 12.6979 14.1099 15.6519 17.3360 19.1751 21.1837 23.3773 25.7729 28.3892 31.2465
 34.3669 37.7748 41.4965 45.5611 50.0000

    POTLOK:  cpu time   52.8440: real time   53.0780
    SETDIJ:  cpu time    0.0400: real time    0.0433
     EDDAV:  cpu time   21.9880: real time   22.4095
 BZINTS: Fermi energy:  5.477811; 56.000000 electrons
         Band energy: -22.439647;  BLOECHL correction: -0.031557
       DOS:  cpu time    0.0040: real time    0.0050
    --------------------------------------------
      LOOP:  cpu time   74.8760: real time   75.5357

 eigenvalue-minimisations  :   960
 total energy-change (2. order) : 0.3948612E+03  (-0.1638114E+04)
 number of electron      56.0000000 magnetization      14.8000000
 augmentation part       56.0000000 magnetization      14.8000000

 Free energy of the ion-electron system (eV)
  ---------------------------------------------------
  alpha Z        PSCENC =        17.65701165
  Ewald energy   TEWEN  =      5985.89955237
  -Hartree energ DENC   =     -8127.15706175
  -exchange      EXHF   =         0.00000000
  -V(xc)+E(xc)   XCENC  =        10.66369969
  PAW double counting   =      1109.62514371    -1009.48240905
  entropy T*S    EENTRO =         0.00000000
  eigenvalues    EBANDS =       -22.43964650
  atomic energy  EATOM  =      2430.09487864
  Solvation  Ediel_sol  =         0.00000000
  ---------------------------------------------------
  free energy    TOTEN  =       394.86116874 eV

  energy without entropy =      394.86116874  energy(sigma->0) =      394.86116874


--------------------------------------------------------------------------------------------------------




--------------------------------------- Iteration      1(   2)  ---------------------------------------


     EDDAV:  cpu time   25.1840: real time   26.4795
 BZINTS: Fermi energy: -1.253977; 56.000000 electrons
         Band energy:-384.507691;  BLOECHL correction: -0.068295
       DOS:  cpu time    0.0040: real time    0.0047
    --------------------------------------------
      LOOP:  cpu time   25.1880: real time   26.4842

 eigenvalue-minimisations  :  1152
 total energy-change (2. order) :-0.3620680E+03  (-0.3336525E+03)
 number of electron      56.0000000 magnetization      14.8000000
 augmentation part       56.0000000 magnetization      14.8000000

 Free energy of the ion-electron system (eV)
  ---------------------------------------------------
  alpha Z        PSCENC =        17.65701165
  Ewald energy   TEWEN  =      5985.89955237
  -Hartree energ DENC   =     -8127.15706175
  -exchange      EXHF   =         0.00000000
  -V(xc)+E(xc)   XCENC  =        10.66369969
  PAW double counting   =      1109.62514371    -1009.48240905
  entropy T*S    EENTRO =         0.00000000
  eigenvalues    EBANDS =      -384.50769060
  atomic energy  EATOM  =      2430.09487864
  Solvation  Ediel_sol  =         0.00000000
  ---------------------------------------------------
  free energy    TOTEN  =        32.79312465 eV

  energy without entropy =       32.79312465  energy(sigma->0) =       32.79312465


--------------------------------------------------------------------------------------------------------




--------------------------------------- Iteration      1(   3)  ---------------------------------------


     EDDAV:  cpu time   30.7840: real time   32.0199
 BZINTS: Fermi energy: -2.704049; 56.000000 electrons
         Band energy:-468.378347;  BLOECHL correction: -0.005849
       DOS:  cpu time    0.0080: real time    0.0051
    --------------------------------------------
      LOOP:  cpu time   30.7920: real time   32.0250

 eigenvalue-minimisations  :  1424
 total energy-change (2. order) :-0.8387066E+02  (-0.7984597E+02)
 number of electron      56.0000000 magnetization      14.8000000
 augmentation part       56.0000000 magnetization      14.8000000

 Free energy of the ion-electron system (eV)
  ---------------------------------------------------
  alpha Z        PSCENC =        17.65701165
  Ewald energy   TEWEN  =      5985.89955237
  -Hartree energ DENC   =     -8127.15706175
  -exchange      EXHF   =         0.00000000
  -V(xc)+E(xc)   XCENC  =        10.66369969
  PAW double counting   =      1109.62514371    -1009.48240905
  entropy T*S    EENTRO =         0.00000000
  eigenvalues    EBANDS =      -468.37834741
  atomic energy  EATOM  =      2430.09487864
  Solvation  Ediel_sol  =         0.00000000
  ---------------------------------------------------
  free energy    TOTEN  =       -51.07753216 eV

  energy without entropy =      -51.07753216  energy(sigma->0) =      -51.07753216


--------------------------------------------------------------------------------------------------------




--------------------------------------- Iteration      1(   4)  ---------------------------------------


     EDDAV:  cpu time   30.3200: real time   30.5045
 BZINTS: Fermi energy: -2.732696; 56.000000 electrons
         Band energy:-473.210198;  BLOECHL correction: -0.008382
       DOS:  cpu time    0.0040: real time    0.0048
    --------------------------------------------
      LOOP:  cpu time   30.3240: real time   30.5093

 eigenvalue-minimisations  :  1344
 total energy-change (2. order) :-0.4831850E+01  (-0.4743795E+01)
 number of electron      56.0000000 magnetization      14.8000000
 augmentation part       56.0000000 magnetization      14.8000000

 Free energy of the ion-electron system (eV)
  ---------------------------------------------------
  alpha Z        PSCENC =        17.65701165
  Ewald energy   TEWEN  =      5985.89955237
  -Hartree energ DENC   =     -8127.15706175
  -exchange      EXHF   =         0.00000000
  -V(xc)+E(xc)   XCENC  =        10.66369969
  PAW double counting   =      1109.62514371    -1009.48240905
  entropy T*S    EENTRO =         0.00000000
  eigenvalues    EBANDS =      -473.21019764
  atomic energy  EATOM  =      2430.09487864
  Solvation  Ediel_sol  =         0.00000000
  ---------------------------------------------------
  free energy    TOTEN  =       -55.90938239 eV

  energy without entropy =      -55.90938239  energy(sigma->0) =      -55.90938239


--------------------------------------------------------------------------------------------------------




--------------------------------------- Iteration      1(   5)  ---------------------------------------


     EDDAV:  cpu time   29.4160: real time   29.5019
 BZINTS: Fermi energy: -2.733964; 56.000000 electrons
         Band energy:-473.352450;  BLOECHL correction: -0.008407
       DOS:  cpu time    0.0080: real time    0.0075
    CHARGE:  cpu time    1.9160: real time    1.9459
    MIXING:  cpu time    0.0440: real time    0.0408
    --------------------------------------------
      LOOP:  cpu time   31.3840: real time   31.4961

 eigenvalue-minimisations  :  1312
 total energy-change (2. order) :-0.1422526E+00  (-0.1420266E+00)
 number of electron      55.9999997 magnetization      13.6420376
 augmentation part       -3.7618995 magnetization      11.6629387

 Broyden mixing:
  rms(total) = 0.28700E+01    rms(broyden)= 0.28700E+01
  rms(prec ) = 0.31240E+01
  weight for this iteration     100.00

 Free energy of the ion-electron system (eV)
  ---------------------------------------------------
  alpha Z        PSCENC =        17.65701165
  Ewald energy   TEWEN  =      5985.89955237
  -Hartree energ DENC   =     -8127.15706175
  -exchange      EXHF   =         0.00000000
  -V(xc)+E(xc)   XCENC  =        10.66369969
  PAW double counting   =      1109.62514371    -1009.48240905
  entropy T*S    EENTRO =         0.00000000
  eigenvalues    EBANDS =      -473.35245024
  atomic energy  EATOM  =      2430.09487864
  Solvation  Ediel_sol  =         0.00000000
  ---------------------------------------------------
  free energy    TOTEN  =       -56.05163499 eV

  energy without entropy =      -56.05163499  energy(sigma->0) =      -56.05163499


--------------------------------------------------------------------------------------------------------




--------------------------------------- Iteration      1(   6)  ---------------------------------------


    POTLOK:  cpu time   51.4760: real time   51.9283
    SETDIJ:  cpu time    0.0400: real time    0.0404
     EDDAV:  cpu time   29.2960: real time   29.5295
 BZINTS: Fermi energy: -5.084642; 56.000000 electrons
         Band energy:-578.349290;  BLOECHL correction: -0.027849
       DOS:  cpu time    0.0040: real time    0.0071
    CHARGE:  cpu time    1.8960: real time    1.8941
    MIXING:  cpu time    0.0400: real time    0.0407
    --------------------------------------------
      LOOP:  cpu time   82.7520: real time   83.4402

 eigenvalue-minimisations  :  1312
 total energy-change (2. order) :-0.6265925E+02  (-0.3290511E+02)
 number of electron      55.9999995 magnetization      13.3383996
 augmentation part        9.7552945 magnetization       9.5357638

 Broyden mixing:
  rms(total) = 0.62523E+01    rms(broyden)= 0.62522E+01
  rms(prec ) = 0.70378E+01
  weight for this iteration     100.00

 eigenvalues of (default mixing * dielectric matrix)
  average eigenvalue GAMMA=   0.3352
  0.3352

 Free energy of the ion-electron system (eV)
  ---------------------------------------------------
  alpha Z        PSCENC =        17.65701165
  Ewald energy   TEWEN  =      5985.89955237
  -Hartree energ DENC   =     -8093.83902260
  -exchange      EXHF   =         0.00000000
  -V(xc)+E(xc)   XCENC  =        10.14583279
  PAW double counting   =      1049.63128804     -939.95113295
  entropy T*S    EENTRO =         0.00000000
  eigenvalues    EBANDS =      -578.34928960
  atomic energy  EATOM  =      2430.09487864
  Solvation  Ediel_sol  =         0.00000000
  ---------------------------------------------------
  free energy    TOTEN  =      -118.71088167 eV

  energy without entropy =     -118.71088167  energy(sigma->0) =     -118.71088167


--------------------------------------------------------------------------------------------------------




--------------------------------------- Iteration      1(   7)  ---------------------------------------


    POTLOK:  cpu time   51.5560: real time   51.8101
    SETDIJ:  cpu time    0.0400: real time    0.0401
     EDDAV:  cpu time   26.8320: real time   26.9406
 BZINTS: Fermi energy: -3.664919; 56.000000 electrons
         Band energy:-460.481651;  BLOECHL correction:  0.000000
       DOS:  cpu time    0.0000: real time    0.0034
    CHARGE:  cpu time    1.8880: real time    1.9143
    MIXING:  cpu time    0.0440: real time    0.0423
    --------------------------------------------
      LOOP:  cpu time   80.3600: real time   80.7508

 eigenvalue-minimisations  :  1184
 total energy-change (2. order) : 0.7501426E+02  (-0.1254912E+02)
 number of electron      55.9999997 magnetization      12.9467790
 augmentation part       -1.1688200 magnetization      10.4399185

 Broyden mixing:
  rms(total) = 0.18752E+01    rms(broyden)= 0.18751E+01
  rms(prec ) = 0.19070E+01
  weight for this iteration     100.00

 eigenvalues of (default mixing * dielectric matrix)
  average eigenvalue GAMMA=   0.3737
  0.5039  0.2434

 Free energy of the ion-electron system (eV)
  ---------------------------------------------------
  alpha Z        PSCENC =        17.65701165
  Ewald energy   TEWEN  =      5985.89955237
  -Hartree energ DENC   =     -8125.87191020
  -exchange      EXHF   =         0.00000000
  -V(xc)+E(xc)   XCENC  =         8.90827037
  PAW double counting   =      1116.46132658    -1016.36409866
  entropy T*S    EENTRO =         0.00000000
  eigenvalues    EBANDS =      -460.48165111
  atomic energy  EATOM  =      2430.09487864
  Solvation  Ediel_sol  =         0.00000000
  ---------------------------------------------------
  free energy    TOTEN  =       -43.69662037 eV

  energy without entropy =      -43.69662037  energy(sigma->0) =      -43.69662037


--------------------------------------------------------------------------------------------------------




--------------------------------------- Iteration      1(   8)  ---------------------------------------


    POTLOK:  cpu time   51.7760: real time   51.8052
    SETDIJ:  cpu time    0.0440: real time    0.0412
     EDDAV:  cpu time   29.6760: real time   29.9038
 BZINTS: Fermi energy: -4.396925; 56.000000 electrons
         Band energy:-467.373915;  BLOECHL correction:  0.000000
       DOS:  cpu time    0.0000: real time    0.0029
    CHARGE:  cpu time    1.8760: real time    1.8769
    MIXING:  cpu time    0.0400: real time    0.0421
    --------------------------------------------
      LOOP:  cpu time   83.4120: real time   83.6723

 eigenvalue-minimisations  :  1328
 total energy-change (2. order) :-0.2562933E+01  (-0.7515718E+00)
 number of electron      55.9999996 magnetization      12.0027293
 augmentation part       -0.5724398 magnetization       9.8990254

 Broyden mixing:
  rms(total) = 0.10137E+01    rms(broyden)= 0.10137E+01
  rms(prec ) = 0.10254E+01
  weight for this iteration     100.00

 eigenvalues of (default mixing * dielectric matrix)
  average eigenvalue GAMMA=   0.6065
  0.7802  0.7802  0.2591

 Free energy of the ion-electron system (eV)
  ---------------------------------------------------
  alpha Z        PSCENC =        17.65701165
  Ewald energy   TEWEN  =      5985.89955237
  -Hartree energ DENC   =     -8121.97502781
  -exchange      EXHF   =         0.00000000
  -V(xc)+E(xc)   XCENC  =         8.80508245
  PAW double counting   =      1107.41223789    -1006.77937366
  entropy T*S    EENTRO =         0.00000000
  eigenvalues    EBANDS =      -467.37391527
  atomic energy  EATOM  =      2430.09487864
  Solvation  Ediel_sol  =         0.00000000
  ---------------------------------------------------
  free energy    TOTEN  =       -46.25955375 eV

  energy without entropy =      -46.25955375  energy(sigma->0) =      -46.25955375


--------------------------------------------------------------------------------------------------------




--------------------------------------- Iteration      1(   9)  ---------------------------------------


    POTLOK:  cpu time   51.1920: real time   51.4778
    SETDIJ:  cpu time    0.0400: real time    0.0392
     EDDAV:  cpu time   33.7000: real time   34.0114
 BZINTS: Fermi energy: -4.628390; 56.000000 electrons
         Band energy:-467.570360;  BLOECHL correction:  0.000000
       DOS:  cpu time    0.0040: real time    0.0034
    CHARGE:  cpu time    1.9120: real time    1.9166
    MIXING:  cpu time    0.0400: real time    0.0416
    --------------------------------------------
      LOOP:  cpu time   86.8880: real time   87.4899

 eigenvalue-minimisations  :  1552
 total energy-change (2. order) :-0.1638634E+01  (-0.1544091E+00)
 number of electron      55.9999997 magnetization      10.8597589
 augmentation part       -0.2487845 magnetization       9.3694026

 Broyden mixing:
  rms(total) = 0.44492E+00    rms(broyden)= 0.44491E+00
  rms(prec ) = 0.44816E+00
  weight for this iteration     100.00

 eigenvalues of (default mixing * dielectric matrix)
  average eigenvalue GAMMA=   0.7666
  1.0828  1.0828  0.2572  0.6435

 Free energy of the ion-electron system (eV)
  ---------------------------------------------------
  alpha Z        PSCENC =        17.65701165
  Ewald energy   TEWEN  =      5985.89955237
  -Hartree energ DENC   =     -8125.48028418
  -exchange      EXHF   =         0.00000000
  -V(xc)+E(xc)   XCENC  =        10.76426140
  PAW double counting   =      1111.77533973    -1011.03858761
  entropy T*S    EENTRO =         0.00000000
  eigenvalues    EBANDS =      -467.57036004
  atomic energy  EATOM  =      2430.09487864
  Solvation  Ediel_sol  =         0.00000000
  ---------------------------------------------------
  free energy    TOTEN  =       -47.89818805 eV

  energy without entropy =      -47.89818805  energy(sigma->0) =      -47.89818805


--------------------------------------------------------------------------------------------------------




--------------------------------------- Iteration      1(  10)  ---------------------------------------


    POTLOK:  cpu time   50.8040: real time   51.0812
    SETDIJ:  cpu time    0.0400: real time    0.0391
     EDDAV:  cpu time   30.8280: real time   31.1797
 BZINTS: Fermi energy: -4.671892; 56.000000 electrons
         Band energy:-468.792429;  BLOECHL correction:  0.000000
       DOS:  cpu time    0.0040: real time    0.0032
    CHARGE:  cpu time    1.8560: real time    1.8716
    MIXING:  cpu time    0.0680: real time    0.0674
    --------------------------------------------
      LOOP:  cpu time   83.6000: real time   84.2422

 eigenvalue-minimisations  :  1408
 total energy-change (2. order) :-0.5841497E+00  (-0.5808082E-01)
 number of electron      55.9999996 magnetization       9.7732323
 augmentation part       -0.0317574 magnetization       8.6290504

 Broyden mixing:
  rms(total) = 0.30530E+00    rms(broyden)= 0.30530E+00
  rms(prec ) = 0.30920E+00
  weight for this iteration     100.00

 eigenvalues of (default mixing * dielectric matrix)
  average eigenvalue GAMMA=   0.9908
  2.2950  0.2573  0.8820  0.8820  0.6375

 Free energy of the ion-electron system (eV)
  ---------------------------------------------------
  alpha Z        PSCENC =        17.65701165
  Ewald energy   TEWEN  =      5985.89955237
  -Hartree energ DENC   =     -8125.88874461
  -exchange      EXHF   =         0.00000000
  -V(xc)+E(xc)   XCENC  =        12.35085099
  PAW double counting   =      1105.69998633    -1005.50344417
  entropy T*S    EENTRO =         0.00000000
  eigenvalues    EBANDS =      -468.79242894
  atomic energy  EATOM  =      2430.09487864
  Solvation  Ediel_sol  =         0.00000000
  ---------------------------------------------------
  free energy    TOTEN  =       -48.48233776 eV

  energy without entropy =      -48.48233776  energy(sigma->0) =      -48.48233776


--------------------------------------------------------------------------------------------------------




--------------------------------------- Iteration      1(  11)  ---------------------------------------


    POTLOK:  cpu time   50.9920: real time   51.1710
    SETDIJ:  cpu time    0.0400: real time    0.0394
     EDDAV:  cpu time   33.1120: real time   33.3378
 BZINTS: Fermi energy: -4.629557; 56.000000 electrons
         Band energy:-469.471206;  BLOECHL correction:  0.000000
       DOS:  cpu time    0.0000: real time    0.0032
    CHARGE:  cpu time    1.8760: real time    1.8798
    MIXING:  cpu time    0.0440: real time    0.0443
    --------------------------------------------
      LOOP:  cpu time   86.0640: real time   86.4756

 eigenvalue-minimisations  :  1520
 total energy-change (2. order) :-0.2352991E+00  (-0.1354325E-01)
 number of electron      55.9999996 magnetization       8.6812397
 augmentation part       -0.0585643 magnetization       7.6474177

 Broyden mixing:
  rms(total) = 0.32917E+00    rms(broyden)= 0.32917E+00
  rms(prec ) = 0.33153E+00
  weight for this iteration     100.00

 eigenvalues of (default mixing * dielectric matrix)
  average eigenvalue GAMMA=   1.0596
  2.6227  1.0703  1.0703  0.2573  0.6686  0.6686

 Free energy of the ion-electron system (eV)
  ---------------------------------------------------
  alpha Z        PSCENC =        17.65701165
  Ewald energy   TEWEN  =      5985.89955237
  -Hartree energ DENC   =     -8126.02878538
  -exchange      EXHF   =         0.00000000
  -V(xc)+E(xc)   XCENC  =        12.98635952
  PAW double counting   =      1104.10575923    -1003.96120660
  entropy T*S    EENTRO =         0.00000000
  eigenvalues    EBANDS =      -469.47120626
  atomic energy  EATOM  =      2430.09487864
  Solvation  Ediel_sol  =         0.00000000
  ---------------------------------------------------
  free energy    TOTEN  =       -48.71763684 eV

  energy without entropy =      -48.71763684  energy(sigma->0) =      -48.71763684


--------------------------------------------------------------------------------------------------------




--------------------------------------- Iteration      1(  12)  ---------------------------------------


    POTLOK:  cpu time   50.9040: real time   51.0742
    SETDIJ:  cpu time    0.0400: real time    0.0403
     EDDAV:  cpu time   31.2960: real time   31.3828
 BZINTS: Fermi energy: -4.649552; 56.000000 electrons
         Band energy:-468.693049;  BLOECHL correction:  0.000000
       DOS:  cpu time    0.0040: real time    0.0032
    CHARGE:  cpu time    1.8880: real time    1.8958
    MIXING:  cpu time    0.0440: real time    0.0444
    --------------------------------------------
      LOOP:  cpu time   84.1760: real time   84.4407

 eigenvalue-minimisations  :  1424
 total energy-change (2. order) :-0.2648924E+00  (-0.5751408E-02)
 number of electron      55.9999996 magnetization       6.8884984
 augmentation part       -0.1376528 magnetization       5.7425463

 Broyden mixing:
  rms(total) = 0.23568E+00    rms(broyden)= 0.23568E+00
  rms(prec ) = 0.23677E+00
  weight for this iteration     100.00

 eigenvalues of (default mixing * dielectric matrix)
  average eigenvalue GAMMA=   1.4383
  4.7542  1.4082  1.4082  0.2573  0.8000  0.8000  0.6402

 Free energy of the ion-electron system (eV)
  ---------------------------------------------------
  alpha Z        PSCENC =        17.65701165
  Ewald energy   TEWEN  =      5985.89955237
  -Hartree energ DENC   =     -8126.12877609
  -exchange      EXHF   =         0.00000000
  -V(xc)+E(xc)   XCENC  =        12.31239859
  PAW double counting   =      1102.93083886    -1003.05538446
  entropy T*S    EENTRO =         0.00000000
  eigenvalues    EBANDS =      -468.69304886
  atomic energy  EATOM  =      2430.09487864
  Solvation  Ediel_sol  =         0.00000000
  ---------------------------------------------------
  free energy    TOTEN  =       -48.98252929 eV

  energy without entropy =      -48.98252929  energy(sigma->0) =      -48.98252929


--------------------------------------------------------------------------------------------------------




--------------------------------------- Iteration      1(  13)  ---------------------------------------


    POTLOK:  cpu time   50.9120: real time   51.2037
    SETDIJ:  cpu time    0.0400: real time    0.0392
     EDDAV:  cpu time   30.4760: real time   30.7305
 BZINTS: Fermi energy: -4.608054; 56.000000 electrons
         Band energy:-468.048609;  BLOECHL correction:  0.000000
       DOS:  cpu time    0.0000: real time    0.0030
    CHARGE:  cpu time    1.8760: real time    1.8781
    MIXING:  cpu time    0.0480: real time    0.0450
    --------------------------------------------
      LOOP:  cpu time   83.3520: real time   83.8995

 eigenvalue-minimisations  :  1392
 total energy-change (2. order) :-0.2164770E+00  (-0.1237740E-01)
 number of electron      55.9999996 magnetization       6.2226655
 augmentation part       -0.2252574 magnetization       4.9177355

 Broyden mixing:
  rms(total) = 0.79407E-01    rms(broyden)= 0.79406E-01
  rms(prec ) = 0.81548E-01
  weight for this iteration     100.00

 eigenvalues of (default mixing * dielectric matrix)
  average eigenvalue GAMMA=   1.6640
  6.8367  1.6888  0.2573  1.1912  1.1912  0.7634  0.7634  0.6202

 Free energy of the ion-electron system (eV)
  ---------------------------------------------------
  alpha Z        PSCENC =        17.65701165
  Ewald energy   TEWEN  =      5985.89955237
  -Hartree energ DENC   =     -8125.80577353
  -exchange      EXHF   =         0.00000000
  -V(xc)+E(xc)   XCENC  =        10.95202757
  PAW double counting   =      1102.97181444    -1002.91990821
  entropy T*S    EENTRO =         0.00000000
  eigenvalues    EBANDS =      -468.04860919
  atomic energy  EATOM  =      2430.09487864
  Solvation  Ediel_sol  =         0.00000000
  ---------------------------------------------------
  free energy    TOTEN  =       -49.19900627 eV

  energy without entropy =      -49.19900627  energy(sigma->0) =      -49.19900627


--------------------------------------------------------------------------------------------------------




--------------------------------------- Iteration      1(  14)  ---------------------------------------


    POTLOK:  cpu time   50.7920: real time   51.0163
    SETDIJ:  cpu time    0.0400: real time    0.0391
     EDDAV:  cpu time   27.7560: real time   27.9112
 BZINTS: Fermi energy: -4.611883; 56.000000 electrons
         Band energy:-468.154305;  BLOECHL correction:  0.000000
       DOS:  cpu time    0.0000: real time    0.0036
    CHARGE:  cpu time    1.8760: real time    1.8794
    MIXING:  cpu time    0.0440: real time    0.0460
    --------------------------------------------
      LOOP:  cpu time   80.5080: real time   80.8957

 eigenvalue-minimisations  :  1248
 total energy-change (2. order) :-0.1873397E-01  (-0.3886623E-02)
 number of electron      55.9999996 magnetization       6.0441991
 augmentation part       -0.1849366 magnetization       4.7332324

 Broyden mixing:
  rms(total) = 0.71330E-01    rms(broyden)= 0.71330E-01
  rms(prec ) = 0.71813E-01
  weight for this iteration     100.00

 eigenvalues of (default mixing * dielectric matrix)
  average eigenvalue GAMMA=   1.8026
  8.2025  2.1323  1.3333  1.3333  0.2573  0.8159  0.8159  0.7010  0.6318

 Free energy of the ion-electron system (eV)
  ---------------------------------------------------
  alpha Z        PSCENC =        17.65701165
  Ewald energy   TEWEN  =      5985.89955237
  -Hartree energ DENC   =     -8125.58764584
  -exchange      EXHF   =         0.00000000
  -V(xc)+E(xc)   XCENC  =        10.75449200
  PAW double counting   =      1102.29344572    -1002.17517018
  entropy T*S    EENTRO =         0.00000000
  eigenvalues    EBANDS =      -468.15430459
  atomic energy  EATOM  =      2430.09487864
  Solvation  Ediel_sol  =         0.00000000
  ---------------------------------------------------
  free energy    TOTEN  =       -49.21774024 eV

  energy without entropy =      -49.21774024  energy(sigma->0) =      -49.21774024


--------------------------------------------------------------------------------------------------------




--------------------------------------- Iteration      1(  15)  ---------------------------------------


    POTLOK:  cpu time   51.1480: real time   51.3804
    SETDIJ:  cpu time    0.0400: real time    0.0403
     EDDAV:  cpu time   30.4520: real time   30.4850
 BZINTS: Fermi energy: -4.612343; 56.000000 electrons
         Band energy:-468.141359;  BLOECHL correction:  0.000000
       DOS:  cpu time    0.0000: real time    0.0030
    CHARGE:  cpu time    1.7880: real time    1.8633
    MIXING:  cpu time    0.0480: real time    0.0473
    --------------------------------------------
      LOOP:  cpu time   83.4760: real time   83.8194

 eigenvalue-minimisations  :  1376
 total energy-change (2. order) :-0.4256381E-02  (-0.1060827E-02)
 number of electron      55.9999996 magnetization       6.0089619
 augmentation part       -0.1640085 magnetization       4.7352708

 Broyden mixing:
  rms(total) = 0.24852E-01    rms(broyden)= 0.24852E-01
  rms(prec ) = 0.25697E-01
  weight for this iteration     100.00

 eigenvalues of (default mixing * dielectric matrix)
  average eigenvalue GAMMA=   1.8653
  9.1000  2.5254  1.4431  1.4431  0.2573  0.8653  0.8653  0.8123  0.7150  0.6265

 Free energy of the ion-electron system (eV)
  ---------------------------------------------------
  alpha Z        PSCENC =        17.65701165
  Ewald energy   TEWEN  =      5985.89955237
  -Hartree energ DENC   =     -8125.84900841
  -exchange      EXHF   =         0.00000000
  -V(xc)+E(xc)   XCENC  =        10.95628115
  PAW double counting   =      1103.05883644    -1002.89818946
  entropy T*S    EENTRO =         0.00000000
  eigenvalues    EBANDS =      -468.14135900
  atomic energy  EATOM  =      2430.09487864
  Solvation  Ediel_sol  =         0.00000000
  ---------------------------------------------------
  free energy    TOTEN  =       -49.22199662 eV

  energy without entropy =      -49.22199662  energy(sigma->0) =      -49.22199662


--------------------------------------------------------------------------------------------------------




--------------------------------------- Iteration      1(  16)  ---------------------------------------


    POTLOK:  cpu time   51.0440: real time   51.2153
    SETDIJ:  cpu time    0.0400: real time    0.0389
     EDDAV:  cpu time   31.9440: real time   32.0947
 BZINTS: Fermi energy: -4.630899; 56.000000 electrons
         Band energy:-468.137461;  BLOECHL correction:  0.000000
       DOS:  cpu time    0.0040: real time    0.0018
    CHARGE:  cpu time    1.8240: real time    1.8815
    MIXING:  cpu time    0.0480: real time    0.0473
    --------------------------------------------
      LOOP:  cpu time   84.9040: real time   85.2796

 eigenvalue-minimisations  :  1456
 total energy-change (2. order) :-0.7791713E-03  (-0.1631050E-03)
 number of electron      55.9999996 magnetization       6.0044490
 augmentation part       -0.1788510 magnetization       4.7289945

 Broyden mixing:
  rms(total) = 0.54417E-02    rms(broyden)= 0.54416E-02
  rms(prec ) = 0.57448E-02
  weight for this iteration     100.00

 eigenvalues of (default mixing * dielectric matrix)
  average eigenvalue GAMMA=   1.7945
  9.2628  2.5243  1.4675  1.4675  0.2573  0.8834  0.8834  0.8599  0.8599  0.6176
  0.6557

 Free energy of the ion-electron system (eV)
  ---------------------------------------------------
  alpha Z        PSCENC =        17.65701165
  Ewald energy   TEWEN  =      5985.89955237
  -Hartree energ DENC   =     -8125.88452758
  -exchange      EXHF   =         0.00000000
  -V(xc)+E(xc)   XCENC  =        11.02631932
  PAW double counting   =      1103.31753373    -1003.19608265
  entropy T*S    EENTRO =         0.00000000
  eigenvalues    EBANDS =      -468.13746126
  atomic energy  EATOM  =      2430.09487864
  Solvation  Ediel_sol  =         0.00000000
  ---------------------------------------------------
  free energy    TOTEN  =       -49.22277579 eV

  energy without entropy =      -49.22277579  energy(sigma->0) =      -49.22277579


--------------------------------------------------------------------------------------------------------




--------------------------------------- Iteration      1(  17)  ---------------------------------------


    POTLOK:  cpu time   51.1680: real time   51.1854
    SETDIJ:  cpu time    0.0400: real time    0.0398
     EDDAV:  cpu time   24.1800: real time   24.2106
 BZINTS: Fermi energy: -4.590223; 56.000000 electrons
         Band energy:-468.207633;  BLOECHL correction:  0.000000
       DOS:  cpu time    0.0040: real time    0.0033
    CHARGE:  cpu time    1.9000: real time    1.9051
    MIXING:  cpu time    0.0520: real time    0.0484
    --------------------------------------------
      LOOP:  cpu time   77.3440: real time   77.3926

 eigenvalue-minimisations  :  1056
 total energy-change (2. order) :-0.2018464E-03  (-0.1926696E-04)
 number of electron      55.9999996 magnetization       6.0025035
 augmentation part       -0.1815783 magnetization       4.7256774

 Broyden mixing:
  rms(total) = 0.36493E-02    rms(broyden)= 0.36493E-02
  rms(prec ) = 0.39454E-02
  weight for this iteration     100.00

 eigenvalues of (default mixing * dielectric matrix)
  average eigenvalue GAMMA=   1.7780
  9.3033  2.6423  1.4368  1.4368  1.4707  0.2573  1.0659  0.8420  0.8420  0.7699
  0.6208  0.6486

 Free energy of the ion-electron system (eV)
  ---------------------------------------------------
  alpha Z        PSCENC =        17.65701165
  Ewald energy   TEWEN  =      5985.89955237
  -Hartree energ DENC   =     -8125.81282564
  -exchange      EXHF   =         0.00000000
  -V(xc)+E(xc)   XCENC  =        11.02227347
  PAW double counting   =      1103.34211976    -1003.21835503
  entropy T*S    EENTRO =         0.00000000
  eigenvalues    EBANDS =      -468.20763284
  atomic energy  EATOM  =      2430.09487864
  Solvation  Ediel_sol  =         0.00000000
  ---------------------------------------------------
  free energy    TOTEN  =       -49.22297764 eV

  energy without entropy =      -49.22297764  energy(sigma->0) =      -49.22297764


--------------------------------------------------------------------------------------------------------




--------------------------------------- Iteration      1(  18)  ---------------------------------------


    POTLOK:  cpu time   51.2360: real time   51.4222
    SETDIJ:  cpu time    0.0600: real time    0.0573
     EDDAV:  cpu time   24.5520: real time   25.0582
 BZINTS: Fermi energy: -4.600466; 56.000000 electrons
         Band energy:-468.325308;  BLOECHL correction:  0.000000
       DOS:  cpu time    0.0000: real time    0.0035
    CHARGE:  cpu time    1.8760: real time    1.8791
    MIXING:  cpu time    0.0520: real time    0.0495
    --------------------------------------------
      LOOP:  cpu time   77.7760: real time   78.4697

 eigenvalue-minimisations  :  1104
 total energy-change (2. order) :-0.4797531E-03  (-0.1899168E-04)
 number of electron      55.9999996 magnetization       6.0026301
 augmentation part       -0.1793265 magnetization       4.7280682

 Broyden mixing:
  rms(total) = 0.10351E-02    rms(broyden)= 0.10351E-02
  rms(prec ) = 0.11804E-02
  weight for this iteration     100.00

 eigenvalues of (default mixing * dielectric matrix)
  average eigenvalue GAMMA=   1.7690
  9.3100  2.8211  2.1964  1.4382  1.4382  0.2573  0.9535  0.9535  0.8136  0.8136
  0.7343  0.6232  0.6444

 Free energy of the ion-electron system (eV)
  ---------------------------------------------------
  alpha Z        PSCENC =        17.65701165
  Ewald energy   TEWEN  =      5985.89955237
  -Hartree energ DENC   =     -8125.70223692
  -exchange      EXHF   =         0.00000000
  -V(xc)+E(xc)   XCENC  =        11.02393422
  PAW double counting   =      1103.38557934    -1003.25686864
  entropy T*S    EENTRO =         0.00000000
  eigenvalues    EBANDS =      -468.32530804
  atomic energy  EATOM  =      2430.09487864
  Solvation  Ediel_sol  =         0.00000000
  ---------------------------------------------------
  free energy    TOTEN  =       -49.22345739 eV

  energy without entropy =      -49.22345739  energy(sigma->0) =      -49.22345739


--------------------------------------------------------------------------------------------------------




--------------------------------------- Iteration      1(  19)  ---------------------------------------


    POTLOK:  cpu time   50.7960: real time   51.3042
    SETDIJ:  cpu time    0.0360: real time    0.0392
     EDDAV:  cpu time   21.1560: real time   21.2240
 BZINTS: Fermi energy: -4.605612; 56.000000 electrons
         Band energy:-468.354783;  BLOECHL correction:  0.000000
       DOS:  cpu time    0.0000: real time    0.0033
    CHARGE:  cpu time    1.8440: real time    1.8677
    MIXING:  cpu time    0.0480: real time    0.0881
    --------------------------------------------
      LOOP:  cpu time   73.8800: real time   74.5265

 eigenvalue-minimisations  :   880
 total energy-change (2. order) :-0.1388999E-03  (-0.3563706E-05)
 number of electron      55.9999996 magnetization       6.0015489
 augmentation part       -0.1792078 magnetization       4.7275642

 Broyden mixing:
  rms(total) = 0.55170E-03    rms(broyden)= 0.55170E-03
  rms(prec ) = 0.69208E-03
  weight for this iteration     100.00

 eigenvalues of (default mixing * dielectric matrix)
  average eigenvalue GAMMA=   1.7203
  9.3143  2.8440  2.2052  1.4450  1.4450  0.2573  1.0692  1.0692  0.8458  0.8458
  0.7447  0.7447  0.6217  0.6321

 Free energy of the ion-electron system (eV)
  ---------------------------------------------------
  alpha Z        PSCENC =        17.65701165
  Ewald energy   TEWEN  =      5985.89955237
  -Hartree energ DENC   =     -8125.67493506
  -exchange      EXHF   =         0.00000000
  -V(xc)+E(xc)   XCENC  =        11.02825529
  PAW double counting   =      1103.42807874    -1003.30165489
  entropy T*S    EENTRO =         0.00000000
  eigenvalues    EBANDS =      -468.35478302
  atomic energy  EATOM  =      2430.09487864
  Solvation  Ediel_sol  =         0.00000000
  ---------------------------------------------------
  free energy    TOTEN  =       -49.22359629 eV

  energy without entropy =      -49.22359629  energy(sigma->0) =      -49.22359629


--------------------------------------------------------------------------------------------------------




--------------------------------------- Iteration      1(  20)  ---------------------------------------


    POTLOK:  cpu time   50.9360: real time   51.3067
    SETDIJ:  cpu time    0.0400: real time    0.0397
     EDDAV:  cpu time   18.7840: real time   18.9347
 BZINTS: Fermi energy: -4.611554; 56.000000 electrons
         Band energy:-468.366830;  BLOECHL correction:  0.000000
       DOS:  cpu time    0.0000: real time    0.0036
    CHARGE:  cpu time    1.8400: real time    1.9090
    MIXING:  cpu time    0.0520: real time    0.0521
    --------------------------------------------
      LOOP:  cpu time   71.6520: real time   72.2458

 eigenvalue-minimisations  :   768
 total energy-change (2. order) :-0.1059575E-03  (-0.2607866E-05)
 number of electron      55.9999996 magnetization       6.0007694
 augmentation part       -0.1792157 magnetization       4.7265782

 Broyden mixing:
  rms(total) = 0.32691E-03    rms(broyden)= 0.32691E-03
  rms(prec ) = 0.45587E-03
  weight for this iteration     100.00

 eigenvalues of (default mixing * dielectric matrix)
  average eigenvalue GAMMA=   1.7210
  9.3192  2.8725  2.0742  2.0742  1.4345  1.4345  0.2573  0.9825  0.9825  0.8338
  0.8338  0.8004  0.6729  0.6216  0.6216

 Free energy of the ion-electron system (eV)
  ---------------------------------------------------
  alpha Z        PSCENC =        17.65701165
  Ewald energy   TEWEN  =      5985.89955237
  -Hartree energ DENC   =     -8125.65999821
  -exchange      EXHF   =         0.00000000
  -V(xc)+E(xc)   XCENC  =        11.02724564
  PAW double counting   =      1103.45123502    -1003.32679769
  entropy T*S    EENTRO =         0.00000000
  eigenvalues    EBANDS =      -468.36682966
  atomic energy  EATOM  =      2430.09487864
  Solvation  Ediel_sol  =         0.00000000
  ---------------------------------------------------
  free energy    TOTEN  =       -49.22370225 eV

  energy without entropy =      -49.22370225  energy(sigma->0) =      -49.22370225


--------------------------------------------------------------------------------------------------------




--------------------------------------- Iteration      1(  21)  ---------------------------------------


    POTLOK:  cpu time   51.3840: real time   51.5089
    SETDIJ:  cpu time    0.0600: real time    0.0581
     EDDAV:  cpu time   21.0440: real time   21.1376
 BZINTS: Fermi energy: -4.630781; 56.000000 electrons
         Band energy:-468.389901;  BLOECHL correction:  0.000000
       DOS:  cpu time    0.0000: real time    0.0012
    --------------------------------------------
      LOOP:  cpu time   72.4880: real time   72.7057

 eigenvalue-minimisations  :   880
 total energy-change (2. order) :-0.1339471E-04  (-0.5066591E-05)
 number of electron      55.9999996 magnetization       6.0007694
 augmentation part       -0.1792157 magnetization       4.7265782

 Free energy of the ion-electron system (eV)
  ---------------------------------------------------
  alpha Z        PSCENC =        17.65701165
  Ewald energy   TEWEN  =      5985.89955237
  -Hartree energ DENC   =     -8125.63413165
  -exchange      EXHF   =         0.00000000
  -V(xc)+E(xc)   XCENC  =        11.02550284
  PAW double counting   =      1103.47065915    -1003.34728731
  entropy T*S    EENTRO =         0.00000000
  eigenvalues    EBANDS =      -468.38990132
  atomic energy  EATOM  =      2430.09487864
  Solvation  Ediel_sol  =         0.00000000
  ---------------------------------------------------
  free energy    TOTEN  =       -49.22371564 eV

  energy without entropy =      -49.22371564  energy(sigma->0) =      -49.22371564


--------------------------------------------------------------------------------------------------------




 average (electrostatic) potential at core
  the test charge radii are     1.1394  0.9892  0.9698
  (the norm of the test charge is              1.0000)
       1 -52.6750       2 -52.6750       3 -94.6389       4 -94.6389       5 -95.0846
       6 -95.0846       7 -95.0846       8 -95.0846       9 -95.0846      10 -95.0846



 E-fermi :  -4.6308     XC(G=0):  -3.0254     alpha+bet : -2.1538


 spin component 1

 k-point     1 :       0.0000    0.0000    0.0000
  band No.  band energies     occupation 
      1     -16.1388      1.00000
      2     -15.7065      1.00000
      3     -15.2953      1.00000
      4     -15.2952      1.00000
      5     -15.2591      1.00000
      6     -15.2591      1.00000
      7     -11.8549      1.00000
      8      -9.5896      1.00000
      9      -7.5323      1.00000
     10      -7.5322      1.00000
     11      -7.4204      1.00000
     12      -7.2705      1.00000
     13      -7.1103      1.00000
     14      -7.1103      1.00000
     15      -6.2745      1.00000
     16      -6.1434      1.00000
     17      -6.1434      1.00000
     18      -5.9353      1.00000
     19      -5.9352      1.00000
     20      -5.7214      1.00000
     21      -5.3764      1.00000
     22      -5.3764      1.00000
     23      -5.1254      1.00000
     24      -5.0574      1.00000
     25      -5.0574      1.00000
     26      -5.0480      1.00000
     27      -5.0480      1.00000
     28      -5.0420      1.00000
     29      -4.7224      1.00000
     30      -4.6543      1.00000
     31      -4.6543      1.00000
     32      -3.4073      0.00000
     33      -3.4019      0.00000
     34      -3.4019      0.00000
     35      -3.1754      0.00000
     36      -3.1754      0.00000
     37      -3.0721      0.00000
     38      -1.2638      0.00000
     39      -1.2638      0.00000
     40       0.3880      0.00000
     41       0.3880      0.00000
     42       0.4194      0.00000
     43       0.6463      0.00000
     44       0.7491      0.00000
     45       1.5177      0.00000
     46       1.6303      0.00000
     47       2.1125      0.00000
     48       2.2391      0.00000

 k-point     2 :       0.2000    0.0000    0.0000
  band No.  band energies     occupation 
      1     -16.0634      1.00000
      2     -15.6592      1.00000
      3     -15.3704      1.00000
      4     -15.3291      1.00000
      5     -15.2931      1.00000
      6     -15.2805      1.00000
      7     -11.8440      1.00000
      8      -9.6447      1.00000
      9      -7.5085      1.00000
     10      -7.4884      1.00000
     11      -7.3853      1.00000
     12      -7.1909      1.00000
     13      -6.8702      1.00000
     14      -6.6993      1.00000
     15      -6.2986      1.00000
     16      -6.2065      1.00000
     17      -6.1785      1.00000
     18      -6.1118      1.00000
     19      -5.7385      1.00000
     20      -5.6684      1.00000
     21      -5.6154      1.00000
     22      -5.5888      1.00000
     23      -5.2328      1.00000
     24      -5.1827      1.00000
     25      -5.0906      1.00000
     26      -5.0539      1.00000
     27      -5.0329      1.00000
     28      -4.9786      1.00000
     29      -4.9126      1.00000
     30      -4.7079      1.00000
     31      -4.6363      1.00000
     32      -3.7449      0.00000
     33      -3.3874      0.00000
     34      -3.3835      0.00000
     35      -3.2427      0.00000
     36      -2.9141      0.00000
     37      -2.7626      0.00000
     38      -1.3421      0.00000
     39      -1.2827      0.00000
     40       0.1391      0.00000
     41       0.1951      0.00000
     42       0.5319      0.00000
     43       0.6029      0.00000
     44       0.7821      0.00000
     45       1.6002      0.00000
     46       1.7364      0.00000
     47       2.1239      0.00000
     48       2.2658      0.00000

 k-point     3 :       0.4000    0.0000    0.0000
  band No.  band energies     occupation 
      1     -15.8611      1.00000
      2     -15.5862      1.00000
      3     -15.5402      1.00000
      4     -15.3911      1.00000
      5     -15.3509      1.00000
      6     -15.3354      1.00000
      7     -11.8212      1.00000
      8      -9.7154      1.00000
      9      -7.4915      1.00000
     10      -7.3730      1.00000
     11      -7.0943      1.00000
     12      -6.8295      1.00000
     13      -6.4750      1.00000
     14      -6.4706      1.00000
     15      -6.3524      1.00000
     16      -6.3103      1.00000
     17      -6.2630      1.00000
     18      -6.2507      1.00000
     19      -5.9542      1.00000
     20      -5.8897      1.00000
     21      -5.7930      1.00000
     22      -5.4247      1.00000
     23      -5.3821      1.00000
     24      -5.3316      1.00000
     25      -5.1805      1.00000
     26      -5.1105      1.00000
     27      -5.0870      1.00000
     28      -4.8804      1.00000
     29      -4.8241      1.00000
     30      -4.8132      1.00000
     31      -4.7123      1.00000
     32      -3.7215      0.00000
     33      -3.4299      0.00000
     34      -3.3839      0.00000
     35      -3.3746      0.00000
     36      -3.0697      0.00000
     37      -2.5344      0.00000
     38      -1.4034      0.00000
     39      -1.3474      0.00000
     40      -0.1798      0.00000
     41      -0.1524      0.00000
     42       0.3789      0.00000
     43       0.8673      0.00000
     44       0.9280      0.00000
     45       1.8523      0.00000
     46       1.9375      0.00000
     47       2.3138      0.00000
     48       2.3444      0.00000

 k-point     4 :       0.4000    0.2000    0.0000
  band No.  band energies     occupation 
      1     -15.9242      1.00000
      2     -15.5761      1.00000
      3     -15.4532      1.00000
      4     -15.4440      1.00000
      5     -15.3416      1.00000
      6     -15.3133      1.00000
      7     -11.8237      1.00000
      8      -9.7009      1.00000
      9      -7.5399      1.00000
     10      -7.2804      1.00000
     11      -7.2596      1.00000
     12      -6.9640      1.00000
[...]
     34      -0.1513      0.00000
     35       0.1114      0.00000
     36       0.7748      0.00000
     37       1.3291      0.00000
     38       1.5010      0.00000
     39       1.6630      0.00000
     40       2.4412      0.00000
     41       2.5936      0.00000
     42       2.8410      0.00000
     43       2.9645      0.00000
     44       3.0745      0.00000
     45       3.2901      0.00000
     46       3.6039      0.00000
     47       4.0404      0.00000
     48       4.1382      0.00000

 k-point     5 :      -0.4000    0.2000    0.0000
  band No.  band energies     occupation 
      1     -16.5602      1.00000
      2     -15.9927      1.00000
      3     -15.8888      1.00000
      4     -15.6431      1.00000
      5     -15.4710      1.00000
      6     -15.3310      1.00000
      7     -10.6255      1.00000
      8      -9.3262      1.00000
      9      -7.9046      1.00000
     10      -7.5042      1.00000
     11      -7.3960      1.00000
     12      -6.9442      1.00000
     13      -6.9341      1.00000
     14      -6.3408      1.00000
     15      -5.8645      1.00000
     16      -5.7511      1.00000
     17      -5.7079      1.00000
     18      -5.4752      1.00000
     19      -5.4203      1.00000
     20      -5.1958      1.00000
     21      -4.9742      1.00000
     22      -4.6034      1.00000
     23      -4.4288      1.00000
     24      -4.2180      1.00000
     25      -3.5067      1.00000
     26      -2.1693      0.00000
     27      -1.6205      0.00000
     28      -1.5549      0.00000
     29      -0.7937      0.00000
     30      -0.7618      0.00000
     31      -0.6529      0.00000
     32      -0.4565      0.00000
     33      -0.4115      0.00000
     34      -0.0417      0.00000
     35       0.0539      0.00000
     36       0.3589      0.00000
     37       1.1776      0.00000
     38       1.5228      0.00000
     39       1.5739      0.00000
     40       2.3728      0.00000
     41       2.5889      0.00000
     42       2.5959      0.00000
     43       3.2829      0.00000
     44       3.5084      0.00000
     45       3.5432      0.00000
     46       3.6082      0.00000
     47       3.8407      0.00000
     48       4.1132      0.00000


--------------------------------------------------------------------------------------------------------


 soft charge-density along one line, spin component           1
         0         1         2         3         4         5         6         7         8         9
 total charge-density along one line

 soft charge-density along one line, spin component           2
         0         1         2         3         4         5         6         7         8         9
 total charge-density along one line

 pseudopotential strength for first ion, spin component:           1
 -8.986   0.104  -0.000  -0.000  -0.000   0.740  -0.028   0.000
  0.104  -8.909   0.000  -0.000  -0.000  -0.028   0.719  -0.000
 -0.000   0.000  -9.076   0.000   0.000   0.000  -0.000   0.764
 -0.000  -0.000   0.000  -8.909  -0.104   0.000   0.000  -0.000
 -0.000  -0.000   0.000  -0.104  -8.986   0.000   0.000  -0.000
  0.740  -0.028   0.000   0.000   0.000   0.348   0.007  -0.000
 -0.028   0.719  -0.000   0.000   0.000   0.007   0.353   0.000
  0.000  -0.000   0.764  -0.000  -0.000  -0.000   0.000   0.341
  0.000   0.000  -0.000   0.719   0.028  -0.000   0.000   0.000
  0.000   0.000  -0.000   0.028   0.740  -0.000  -0.000   0.000
 -0.000  -0.000   0.001  -0.000   0.000  -0.000   0.000  -0.001
  0.000   0.000  -0.000   0.000  -0.000  -0.000  -0.000   0.000
 -0.000  -0.000   0.000  -0.000   0.001   0.000   0.000  -0.000
 -0.000  -0.000  -0.000  -0.000  -0.000   0.000   0.000   0.000
  0.001  -0.000   0.000  -0.000   0.000   0.000   0.000  -0.000
  0.000   0.000  -0.000   0.000  -0.001  -0.000  -0.000   0.000
  0.000   0.000   0.000   0.000   0.000  -0.000  -0.000  -0.000
 -0.001   0.000  -0.000   0.000  -0.000   0.000  -0.000   0.000
 pseudopotential strength for first ion, spin component:           2
 -7.352  -0.196  -0.000   0.000   0.000   0.278   0.051   0.000
 -0.196  -7.556   0.000  -0.000   0.000   0.051   0.332  -0.000
 -0.000   0.000  -7.241   0.000   0.000   0.000  -0.000   0.249
  0.000  -0.000   0.000  -7.556   0.196  -0.000   0.000  -0.000
  0.000   0.000   0.000   0.196  -7.352  -0.000  -0.000  -0.000
  0.278   0.051   0.000  -0.000  -0.000   0.474  -0.013  -0.000
  0.051   0.332  -0.000   0.000  -0.000  -0.013   0.460   0.000
  0.000  -0.000   0.249  -0.000  -0.000  -0.000   0.000   0.481
 -0.000   0.000  -0.000   0.332  -0.051   0.000  -0.000   0.000
 -0.000  -0.000  -0.000  -0.051   0.278   0.000   0.000   0.000
 -0.000  -0.000   0.010  -0.000   0.000  -0.000   0.000  -0.002
  0.000   0.000  -0.001   0.000  -0.000  -0.000  -0.000   0.000
  0.000  -0.000   0.000  -0.000   0.001  -0.000   0.000  -0.000
 -0.000  -0.000  -0.000  -0.000   0.000   0.000   0.000   0.000
  0.001  -0.000   0.000  -0.000  -0.000   0.000   0.000  -0.000
  0.000   0.000  -0.000   0.000  -0.001   0.000  -0.000   0.000
  0.000   0.000   0.000   0.000  -0.000  -0.000  -0.000  -0.000
 -0.001   0.000  -0.000   0.000   0.000   0.000  -0.000   0.000
 total augmentation occupancy for first ion, spin component:           1
  0.984  -0.071   0.000   0.000  -0.000   0.030   0.268  -0.000  -0.000  -0.000  -0.000  -0.000  -0.000   0.000   0.000   0.000
 -0.071   0.894  -0.000  -0.000   0.000   0.266   0.296   0.000  -0.000  -0.000   0.000  -0.000  -0.000   0.000  -0.002   0.000
  0.000  -0.000   1.050  -0.000  -0.000  -0.000   0.000  -0.142   0.000   0.000  -0.014  -0.019  -0.000   0.000   0.000   0.000
  0.000  -0.000  -0.000   0.894   0.071  -0.000   0.000   0.000   0.296  -0.266   0.000   0.000   0.002   0.000  -0.000   0.000
 -0.000   0.000  -0.000   0.071   0.984   0.000  -0.000   0.000  -0.268   0.030   0.000   0.000   0.000  -0.000   0.000  -0.000
  0.030   0.266  -0.000  -0.000   0.000   0.222   0.091   0.000  -0.000  -0.000   0.000  -0.000  -0.000   0.000   0.014   0.000
  0.268   0.296   0.000   0.000  -0.000   0.091   0.312   0.000  -0.000  -0.000   0.000  -0.000  -0.000   0.000  -0.002   0.000
 -0.000   0.000  -0.142   0.000   0.000   0.000   0.000   0.215   0.000  -0.000   0.059  -0.011  -0.000   0.000   0.000   0.000
 -0.000  -0.000   0.000   0.296  -0.268  -0.000  -0.000   0.000   0.312  -0.091   0.000   0.000   0.002  -0.000  -0.000  -0.000
 -0.000  -0.000   0.000  -0.266   0.030  -0.000  -0.000  -0.000  -0.091   0.222  -0.000   0.000   0.014  -0.000   0.000  -0.002
 -0.000   0.000  -0.014   0.000   0.000   0.000   0.000   0.059  -0.000  -0.000   1.061  -0.189   0.000  -0.000   0.000  -0.000
 -0.000   0.000  -0.019   0.000   0.000  -0.000   0.000  -0.011   0.000   0.000  -0.189   0.077   0.000  -0.000   0.000   0.000
 -0.000  -0.000  -0.000   0.002   0.000  -0.000  -0.000  -0.000   0.002   0.014  -0.000  -0.000   0.234  -0.000  -0.000  -0.004
  0.000   0.000   0.000   0.000  -0.000   0.000   0.000   0.000  -0.000  -0.000  -0.000  -0.000  -0.000   0.253   0.000   0.000
  0.000  -0.002   0.000  -0.000   0.000   0.014  -0.002   0.000  -0.000   0.000   0.000   0.000  -0.000   0.000   0.234   0.000
  0.000   0.000   0.000   0.000  -0.000   0.000   0.000   0.000  -0.000  -0.002  -0.000   0.000  -0.004   0.000   0.000   0.000
 -0.000   0.000  -0.000   0.000   0.000  -0.000  -0.000  -0.000  -0.000   0.000  -0.000   0.000   0.000  -0.005  -0.000  -0.000
 -0.000  -0.000  -0.000   0.000  -0.000  -0.002   0.000  -0.000   0.000  -0.000   0.000   0.000  -0.000  -0.000  -0.004  -0.000
 total augmentation occupancy for first ion, spin component:           2
  0.706  -0.323   0.000   0.000  -0.000  -0.192   0.083  -0.000  -0.000  -0.000  -0.000  -0.000   0.000  -0.000   0.001   0.000
 -0.323   0.396  -0.000  -0.000   0.000   0.078  -0.100   0.000  -0.000  -0.000   0.000  -0.000  -0.000   0.000   0.002  -0.000
  0.000  -0.000   0.898  -0.000  -0.000  -0.000   0.000  -0.279   0.000   0.000  -0.030  -0.008  -0.000  -0.000   0.000  -0.000
  0.000  -0.000  -0.000   0.396   0.323  -0.000   0.000   0.000  -0.100  -0.078   0.000   0.000  -0.002   0.000  -0.000   0.000
 -0.000   0.000  -0.000   0.323   0.706   0.000  -0.000   0.000  -0.083  -0.192   0.000   0.000   0.001   0.000  -0.000   0.001
 -0.192   0.078  -0.000  -0.000   0.000   0.021  -0.068   0.000   0.000  -0.000   0.000   0.000  -0.000   0.000  -0.003  -0.000
  0.083  -0.100   0.000   0.000  -0.000  -0.068  -0.046  -0.000   0.000   0.000  -0.000   0.000   0.000  -0.000   0.001  -0.000
 -0.000   0.000  -0.279   0.000   0.000   0.000  -0.000   0.086  -0.000  -0.000   0.018   0.007   0.000   0.000  -0.000   0.000
 -0.000  -0.000   0.000  -0.100  -0.083   0.000   0.000  -0.000  -0.046   0.068   0.000  -0.000  -0.001  -0.000   0.000  -0.000
 -0.000  -0.000   0.000  -0.078  -0.192  -0.000   0.000  -0.000   0.068   0.021  -0.000  -0.000  -0.003  -0.000   0.000  -0.000
 -0.000   0.000  -0.030   0.000   0.000   0.000   0.000   0.018  -0.000  -0.000   0.146   0.065  -0.000  -0.000   0.000  -0.000
 -0.000  -0.000  -0.008   0.000   0.000   0.000  -0.000   0.007  -0.000  -0.000   0.065  -0.022  -0.000  -0.000   0.000  -0.000
  0.000  -0.000  -0.000  -0.002   0.001  -0.000   0.000   0.000  -0.001  -0.003  -0.000  -0.000   0.023   0.000  -0.000   0.002
 -0.000   0.000  -0.000   0.000   0.000   0.000  -0.000   0.000  -0.000  -0.000  -0.000  -0.000  -0.000   0.021   0.000   0.000
  0.001   0.002   0.000  -0.000  -0.000  -0.003   0.001  -0.000   0.000   0.000   0.000   0.000  -0.000   0.000   0.023  -0.000
  0.000  -0.000  -0.000   0.000   0.001  -0.000  -0.000   0.000  -0.000  -0.000  -0.000  -0.000   0.002   0.000  -0.000  -0.000
  0.000   0.000   0.000   0.000  -0.000   0.000   0.000   0.000  -0.000  -0.000  -0.000  -0.000  -0.000   0.002  -0.000   0.000
  0.001  -0.000   0.000  -0.000  -0.000  -0.000   0.000  -0.000  -0.000   0.000   0.000   0.000   0.000  -0.000   0.002   0.000


------------------------ aborting loop because EDIFF is reached ----------------------------------------





 total charge     

# of ion       s       p       d       tot
------------------------------------------
    1        0.348   0.490   4.221   5.059
    2        0.348   0.490   4.221   5.059
    3        0.742   0.901   0.000   1.643
    4        0.742   0.901   0.000   1.643
    5        1.357   2.377   0.000   3.734
    6        1.352   2.390   0.000   3.742
    7        1.356   2.379   0.000   3.735
    8        1.357   2.377   0.000   3.734
    9        1.352   2.390   0.000   3.742
   10        1.356   2.379   0.000   3.735
--------------------------------------------------
tot         10.310  17.072   8.443  35.825



 magnetization (x)

# of ion       s       p       d       tot
------------------------------------------
    1        0.032   0.037   2.901   2.971
    2        0.032   0.037   2.901   2.971
    3        0.003   0.024   0.000   0.027
    4        0.003   0.024   0.000   0.027
    5       -0.001  -0.058   0.000  -0.059
    6       -0.002  -0.044   0.000  -0.046
    7       -0.001  -0.054   0.000  -0.055
    8       -0.001  -0.058   0.000  -0.059
    9       -0.002  -0.044   0.000  -0.046
   10       -0.001  -0.054   0.000  -0.055
--------------------------------------------------
tot          0.063  -0.190   5.803   5.675

    CHARGE:  cpu time    1.8160: real time    1.9223
    FORLOC:  cpu time    0.0560: real time    0.0555
    FORNL :  cpu time    6.5640: real time    6.6598
    STRESS:  cpu time   19.8600: real time   19.8882
    FORCOR:  cpu time   51.9040: real time   51.9915
    FORHAR:  cpu time    0.3240: real time    0.3246
    MIXING:  cpu time    0.0400: real time    0.0410
    OFIELD:  cpu time    0.0000: real time    0.0000

  FORCE on cell =-STRESS in cart. coord.  units (eV):
  Direction    XX          YY          ZZ          XY          YZ          ZX
  --------------------------------------------------------------------------------------
  Alpha Z    25.81649    25.81649    25.81649
  Ewald    9661.77854  9661.77596-11329.93342    -0.00108    -0.00044    -0.00080
  Hartree  9996.62892  9996.62920 -9820.87077    -0.00004     0.00003     0.00005
  E(xc)    -210.58992  -210.58993  -210.17239     0.00002     0.00000     0.00001
  Local  -20546.49064-20546.48975 20230.04526     0.00071     0.00022     0.00040
  n-local   495.30564   496.94795   498.71640     0.71542     0.59431     0.48036
  augment   -54.89686   -54.89685   -58.22943     0.00006     0.00003     0.00002
  Kinetic   634.34442   629.52133   664.73375    -3.43150     0.89729     0.82404
  Fock        0.00000     0.00000     0.00000     0.00000     0.00000     0.00000
  -------------------------------------------------------------------------------------
  Total       0.30550     0.30550     0.10588     0.00000     0.00000     0.00000
  in kB       0.73866     0.73866     0.25601     0.00000     0.00000     0.00000
  external pressure =        0.58 kB  Pullay stress =        0.00 kB


 VOLUME and BASIS-vectors are now :
 -----------------------------------------------------------------------------
  energy-cutoff  :      520.00
  volume of cell :      662.63
      direct lattice vectors                 reciprocal lattice vectors
     5.927296679  0.000000054 -0.000000000     0.168710976 -0.097405320 -0.000000000
     2.963648006  5.133189317 -0.000000000    -0.000000002  0.194810661  0.000000000
     0.000000000 -0.000000000 21.778399140     0.000000000  0.000000000  0.045917057

  length of vectors
     5.927296679  5.927296354 21.778399140     0.194810651  0.194810661  0.045917057


 FORCES acting on ions
    electron-ion (+dipol)            ewald-force                    non-local-force                 convergence-correction
 -----------------------------------------------------------------------------------------------
   -.118E-03 -.701E-04 0.545E+00   0.407E-03 0.238E-03 -.547E+00   0.521E-17 0.347E-17 0.870E-02   0.585E-07 0.213E-07 0.111E-03
   0.118E-03 0.701E-04 -.545E+00   -.407E-03 -.238E-03 0.547E+00   -.347E-17 0.818E-21 -.870E-02   -.585E-07 -.213E-07 -.111E-03
   -.311E-04 -.156E-04 0.223E+03   -.212E-03 -.118E-03 -.213E+03   -.395E-16 -.256E-17 -.971E+01   0.140E-06 0.438E-07 -.163E-01
   0.311E-04 0.156E-04 -.223E+03   0.212E-03 0.118E-03 0.213E+03   0.257E-16 -.913E-18 0.971E+01   -.140E-06 -.438E-07 0.163E-01
   0.396E+01 0.621E-02 -.468E+03   -.707E+01 -.832E-03 0.471E+03   0.309E+01 -.932E-02 -.343E+01   0.191E-01 0.130E-03 0.585E-01
   -.198E+01 -.344E+01 -.468E+03   0.353E+01 0.612E+01 0.471E+03   -.156E+01 -.268E+01 -.343E+01   -.944E-02 -.166E-01 0.585E-01
   -.199E+01 0.343E+01 -.468E+03   0.354E+01 -.612E+01 0.471E+03   -.154E+01 0.268E+01 -.343E+01   -.967E-02 0.165E-01 0.585E-01
   -.396E+01 -.621E-02 0.468E+03   0.707E+01 0.832E-03 -.471E+03   -.309E+01 0.932E-02 0.343E+01   -.191E-01 -.130E-03 -.585E-01
   0.198E+01 0.344E+01 0.468E+03   -.353E+01 -.612E+01 -.471E+03   0.156E+01 0.268E+01 0.343E+01   0.944E-02 0.166E-01 -.585E-01
   0.199E+01 -.343E+01 0.468E+03   -.354E+01 0.612E+01 -.471E+03   0.154E+01 -.268E+01 0.343E+01   0.967E-02 -.165E-01 -.585E-01
 -----------------------------------------------------------------------------------------------
   -.557E-10 -.171E-09 -.287E-10   -.888E-14 0.888E-14 -.114E-12   0.000E+00 0.000E+00 0.888E-15   0.519E-13 0.111E-12 -.443E-10


 POSITION                                       TOTAL-FORCE (eV/Angst)
 -----------------------------------------------------------------------------------
      2.96365      1.71106     10.88757         0.000000      0.000000      0.006551
      5.92730      3.42213     10.89083         0.000000      0.000000     -0.006551
      0.00000     -0.00000      9.78255         0.000000      0.000000     -0.023347
      0.00000     -0.00000     11.99584         0.000000      0.000000      0.023347
      3.80912      0.00102     12.43974         0.010682     -0.002925     -0.028303
      1.05998      1.83389     12.43974        -0.007874     -0.007789     -0.028303
      4.02186      3.29828     12.43974        -0.002808      0.010713     -0.028303
      5.08183      5.13217      9.33865        -0.010682      0.002925      0.028303
      7.83097      3.29930      9.33865         0.007874      0.007789      0.028303
      4.86908      1.83491      9.33865         0.002808     -0.010713      0.028303
 -----------------------------------------------------------------------------------
    total drift:                               -0.000000     -0.000000     -0.000000


--------------------------------------------------------------------------------------------------------



  FREE ENERGIE OF THE ION-ELECTRON SYSTEM (eV)
  ---------------------------------------------------
  free  energy   TOTEN  =       -56.89225673 eV

  energy  without entropy=      -56.89225673  energy(sigma->0) =      -56.89225673

 d Force = 0.5728320E-02[ 0.746E-03, 0.107E-01]  d Energy = 0.7478634E-02-0.175E-02
 d Force =-0.2729591E+01[-0.272E+01,-0.274E+01]  d Ewald  =-0.4832304E+02 0.456E+02


--------------------------------------------------------------------------------------------------------


    POTLOK:  cpu time   52.0960: real time   52.1703


--------------------------------------------------------------------------------------------------------




--------------------------------------------------------------------------------------------------------


  
 reached required accuracy - stopping structural energy minimisation
     LOOP+:  cpu time  451.6320: real time  453.2572
    4ORBIT:  cpu time    0.0000: real time    0.0000



 total charge     

# of ion       s       p       d       tot
------------------------------------------
    1        0.348   0.490   4.221   5.059
    2        0.348   0.490   4.221   5.059
    3        0.742   0.901   0.000   1.643
    4        0.742   0.901   0.000   1.643
    5        1.357   2.377   0.000   3.734
    6        1.352   2.390   0.000   3.742
    7        1.356   2.379   0.000   3.735
    8        1.357   2.377   0.000   3.734
    9        1.352   2.390   0.000   3.742
   10        1.356   2.379   0.000   3.735
--------------------------------------------------
tot         10.310  17.072   8.443  35.825



 magnetization (x)

# of ion       s       p       d       tot
------------------------------------------
    1        0.032   0.037   2.901   2.971
    2        0.032   0.037   2.901   2.971
    3        0.003   0.024   0.000   0.027
    4        0.003   0.024   0.000   0.027
    5       -0.001  -0.058   0.000  -0.059
    6       -0.002  -0.044   0.000  -0.046
    7       -0.001  -0.054   0.000  -0.055
    8       -0.001  -0.058   0.000  -0.059
    9       -0.002  -0.044   0.000  -0.046
   10       -0.001  -0.054   0.000  -0.055
--------------------------------------------------
tot          0.063  -0.190   5.803   5.675

 BZINTS: Fermi energy: -3.150324; 56.000000 electrons
         Band energy:-452.826220;  BLOECHL correction:  0.000000

 total amount of memory used by VASP MPI-rank0   129021. kBytes
=======================================================================

   base      :      30000. kBytes
   nonlr-proj:       8726. kBytes
   fftplans  :      11247. kBytes
   grid      :      66142. kBytes
   one-center:        311. kBytes
   wavefun   :      12595. kBytes

  
  
 General timing and accounting informations for this job:
 ========================================================
  
                  Total CPU time used (sec):     6600.948
                            User time (sec):     6442.824
                          System time (sec):      158.124
                         Elapsed time (sec):     6644.348
  
                   Maximum memory used (kb):      379132.
                   Average memory used (kb):           0.
  
                          Minor page faults:      6418469
                          Major page faults:            6
                 Voluntary context switches:          922
