PROCAR lm decomposed
# of k-points:    5         # of bands:   48         # of ions:   10

 k-point     1 :    0.00000000 0.00000000 0.00000000     weight = 0.04000000

band     1 # energy  -17.25711940 # occ.  1.00000000

ion      s     py     pz     px    dxy    dyz    dz2    dxz  x2-y2    tot
    1  0.021  0.000  0.000  0.000  0.000  0.000  0.000  0.000  0.000  0.021
    2  0.021  0.000  0.000  0.000  0.000  0.000  0.000  0.000  0.000  0.021
    3  0.049  0.000  0.000  0.000  0.000  0.000  0.000  0.000  0.000  0.049
    4  0.049  0.000  0.000  0.000  0.000  0.000  0.000  0.000  0.000  0.049
    5  0.079  0.000  0.001  0.001  0.000  0.000  0.000  0.000  0.000  0.081
    6  0.079  0.001  0.001  0.000  0.000  0.000  0.000  0.000  0.000  0.081
    7  0.079  0.001  0.001  0.000  0.000  0.000  0.000  0.000  0.000  0.081
    8  0.079  0.000  0.001  0.001  0.000  0.000  0.000  0.000  0.000  0.081
    9  0.079  0.001  0.001  0.000  0.000  0.000  0.000  0.000  0.000  0.081
   10  0.079  0.001  0.001  0.000  0.000  0.000  0.000  0.000  0.000  0.081
tot    0.611  0.003  0.006  0.003  0.000  0.000  0.000  0.000  0.000  0.623

band     2 # energy  -16.31576533 # occ.  1.00000000

ion      s     py     pz     px    dxy    dyz    dz2    dxz  x2-y2    tot
    1  0.000  0.000  0.010  0.000  0.000  0.000  0.000  0.000  0.000  0.010
    2  0.000  0.000  0.010  0.000  0.000  0.000  0.000  0.000  0.000  0.010
    3  0.033  0.000  0.002  0.000  0.000  0.000  0.000  0.000  0.000  0.035
    4  0.033  0.000  0.002  0.000  0.000  0.000  0.000  0.000  0.000  0.035
    5  0.094  0.000  0.000  0.001  0.000  0.000  0.000  0.000  0.000  0.095
    6  0.094  0.001  0.000  0.000  0.000  0.000  0.000  0.000  0.000  0.095
    7  0.094  0.001  0.000  0.000  0.000  0.000  0.000  0.000  0.000  0.095
    8  0.094  0.000  0.000  0.001  0.000  0.000  0.000  0.000  0.000  0.095
    9  0.094  0.001  0.000  0.000  0.000  0.000  0.000  0.000  0.000  0.095
   10  0.094  0.001  0.000  0.000  0.000  0.000  0.000  0.000  0.000  0.095
tot    0.627  0.003  0.025  0.003  0.000  0.000  0.000  0.000  0.000  0.658

band     3 # energy  -15.16478204 # occ.  1.00000000

ion      s     py     pz     px    dxy    dyz    dz2    dxz  x2-y2    tot
    1  0.000  0.000  0.000  0.003  0.004  0.009  0.000  0.000  0.000  0.016
    2  0.000  0.000  0.000  0.003  0.004  0.009  0.000  0.000  0.000  0.016
    3  0.000  0.000  0.000  0.014  0.000  0.000  0.000  0.000  0.000  0.014
    4  0.000  0.000  0.000  0.014  0.000  0.000  0.000  0.000  0.000  0.014
    5  0.215  0.000  0.001  0.002  0.000  0.000  0.000  0.000  0.000  0.218
    6  0.065  0.001  0.000  0.000  0.000  0.000  0.000  0.000  0.000  0.066
    7  0.044  0.000  0.000  0.000  0.000  0.000  0.000  0.000  0.000  0.045
    8  0.215  0.000  0.001  0.002  0.000  0.000  0.000  0.000  0.000  0.218
    9  0.065  0.001  0.000  0.000  0.000  0.000  0.000  0.000  0.000  0.066
   10  0.044  0.000  0.000  0.000  0.000  0.000  0.000  0.000  0.000  0.045
tot    0.647  0.002  0.004  0.038  0.008  0.018  0.000  0.000  0.000  0.716

band     4 # energy  -15.16474110 # occ.  1.00000000

ion      s     py     pz     px    dxy    dyz    dz2    dxz  x2-y2    tot
    1  0.000  0.003  0.000  0.000  0.000  0.000  0.000  0.009  0.004  0.016
    2  0.000  0.003  0.000  0.000  0.000  0.000  0.000  0.009  0.004  0.016
    3  0.000  0.014  0.000  0.000  0.000  0.000  0.000  0.000  0.000  0.014
    4  0.000  0.014  0.000  0.000  0.000  0.000  0.000  0.000  0.000  0.014
    5  0.001  0.000  0.000  0.000  0.000  0.000  0.000  0.000  0.000  0.001
    6  0.151  0.001  0.001  0.000  0.000  0.000  0.000  0.000  0.000  0.153
    7  0.172  0.001  0.001  0.000  0.000  0.000  0.000  0.000  0.000  0.174
    8  0.001  0.000  0.000  0.000  0.000  0.000  0.000  0.000  0.000  0.001
    9  0.151  0.001  0.001  0.000  0.000  0.000  0.000  0.000  0.000  0.153
   10  0.172  0.001  0.001  0.000  0.000  0.000  0.000  0.000  0.000  0.174
tot    0.647  0.038  0.004  0.002  0.000  0.000  0.000  0.018  0.008  0.716

band     5 # energy  -15.06493873 # occ.  1.00000000

ion      s     py     pz     px    dxy    dyz    dz2    dxz  x2-y2    tot
    1  0.000  0.009  0.000  0.000  0.000  0.000  0.000  0.003  0.002  0.014
    2  0.000  0.009  0.000  0.000  0.000  0.000  0.000  0.003  0.002  0.014
    3  0.000  0.000  0.000  0.010  0.000  0.000  0.000  0.000  0.000  0.010
    4  0.000  0.000  0.000  0.010  0.000  0.000  0.000  0.000  0.000  0.010
    5  0.217  0.000  0.001  0.001  0.000  0.000  0.000  0.000  0.000  0.220
    6  0.086  0.000  0.000  0.000  0.000  0.000  0.000  0.000  0.000  0.087
    7  0.030  0.000  0.000  0.000  0.000  0.000  0.000  0.000  0.000  0.030
    8  0.217  0.000  0.001  0.001  0.000  0.000  0.000  0.000  0.000  0.220
    9  0.086  0.000  0.000  0.000  0.000  0.000  0.000  0.000  0.000  0.087
   10  0.030  0.000  0.000  0.000  0.000  0.000  0.000  0.000  0.000  0.030
tot    0.667  0.019  0.003  0.022  0.000  0.000  0.000  0.005  0.004  0.721

band     6 # energy  -15.06490466 # occ.  1.00000000

ion      s     py     pz     px    dxy    dyz    dz2    dxz  x2-y2    tot
    1  0.000  0.000  0.000  0.009  0.002  0.003  0.000  0.000  0.000  0.014
    2  0.000  0.000  0.000  0.009  0.002  0.003  0.000  0.000  0.000  0.014
    3  0.000  0.010  0.000  0.000  0.000  0.000  0.000  0.000  0.000  0.010
    4  0.000  0.010  0.000  0.000  0.000  0.000  0.000  0.000  0.000  0.010
    5  0.005  0.000  0.000  0.000  0.000  0.000  0.000  0.000  0.000  0.005
    6  0.136  0.001  0.001  0.000  0.000  0.000  0.000  0.000  0.000  0.137
    7  0.193  0.001  0.001  0.000  0.000  0.000  0.000  0.000  0.000  0.195
    8  0.005  0.000  0.000  0.000  0.000  0.000  0.000  0.000  0.000  0.005
    9  0.136  0.001  0.001  0.000  0.000  0.000  0.000  0.000  0.000  0.137
   10  0.193  0.001  0.001  0.000  0.000  0.000  0.000  0.000  0.000  0.195
tot    0.667  0.022  0.003  0.019  0.004  0.005  0.000  0.000  0.000  0.722

band     7 # energy  -11.10244770 # occ.  1.00000000

ion      s     py     pz     px    dxy    dyz    dz2    dxz  x2-y2    tot
    1  0.015  0.000  0.000  0.000  0.000  0.000  0.003  0.000  0.000  0.019
    2  0.015  0.000  0.000  0.000  0.000  0.000  0.003  0.000  0.000  0.019
    3  0.150  0.000  0.009  0.000  0.000  0.000  0.000  0.000  0.000  0.159
    4  0.150  0.000  0.009  0.000  0.000  0.000  0.000  0.000  0.000  0.159
    5  0.018  0.000  0.000  0.020  0.000  0.000  0.000  0.000  0.000  0.038
    6  0.018  0.015  0.000  0.005  0.000  0.000  0.000  0.000  0.000  0.038
    7  0.018  0.015  0.000  0.005  0.000  0.000  0.000  0.000  0.000  0.038
    8  0.018  0.000  0.000  0.020  0.000  0.000  0.000  0.000  0.000  0.038
    9  0.018  0.015  0.000  0.005  0.000  0.000  0.000  0.000  0.000  0.038
   10  0.018  0.015  0.000  0.005  0.000  0.000  0.000  0.000  0.000  0.038
tot    0.437  0.060  0.021  0.060  0.000  0.000  0.006  0.000  0.000  0.584

band     8 # energy   -9.17402367 # occ.  1.00000000

ion      s     py     pz     px    dxy    dyz    dz2    dxz  x2-y2    tot
    1  0.000  0.000  0.014  0.000  0.000  0.000  0.000  0.000  0.000  0.014
    2  0.000  0.000  0.014  0.000  0.000  0.000  0.000  0.000  0.000  0.014
    3  0.121  0.000  0.010  0.000  0.000  0.000  0.000  0.000  0.000  0.131
    4  0.121  0.000  0.010  0.000  0.000  0.000  0.000  0.000  0.000  0.131
    5  0.011  0.000  0.000  0.040  0.000  0.000  0.000  0.000  0.000  0.051
    6  0.011  0.030  0.000  0.010  0.000  0.000  0.000  0.000  0.000  0.051
    7  0.011  0.030  0.000  0.010  0.000  0.000  0.000  0.000  0.000  0.051
    8  0.011  0.000  0.000  0.040  0.000  0.000  0.000  0.000  0.000  0.051
    9  0.011  0.030  0.000  0.010  0.000  0.000  0.000  0.000  0.000  0.051
   10  0.011  0.030  0.000  0.010  0.000  0.000  0.000  0.000  0.000  0.051
tot    0.307  0.119  0.048  0.119  0.000  0.000  0.000  0.000  0.000  0.594

band     9 # energy   -8.19417335 # occ.  1.00000000

ion      s     py     pz     px    dxy    dyz    dz2    dxz  x2-y2    tot
    1  0.000  0.003  0.000  0.002  0.002  0.021  0.000  0.033  0.003  0.063
    2  0.000  0.003  0.000  0.002  0.002  0.021  0.000  0.033  0.003  0.063
    3  0.000  0.026  0.000  0.016  0.000  0.000  0.000  0.000  0.000  0.042
    4  0.000  0.026  0.000  0.016  0.000  0.000  0.000  0.000  0.000  0.042
    5  0.003  0.015  0.001  0.028  0.000  0.000  0.000  0.000  0.000  0.047
    6  0.008  0.058  0.002  0.012  0.000  0.000  0.000  0.000  0.000  0.080
    7  0.001  0.000  0.000  0.031  0.000  0.000  0.000  0.000  0.000  0.032
    8  0.003  0.015  0.001  0.028  0.000  0.000  0.000  0.000  0.000  0.047
    9  0.008  0.058  0.002  0.012  0.000  0.000  0.000  0.000  0.000  0.080
   10  0.001  0.000  0.000  0.031  0.000  0.000  0.000  0.000  0.000  0.032
tot    0.025  0.203  0.006  0.178  0.003  0.042  0.000  0.066  0.005  0.529

band    10 # energy   -8.19414950 # occ.  1.00000000

ion      s     py     pz     px    dxy    dyz    dz2    dxz  x2-y2    tot
    1  0.000  0.002  0.000  0.003  0.003  0.033  0.000  0.021  0.002  0.063
    2  0.000  0.002  0.000  0.003  0.003  0.033  0.000  0.021  0.002  0.063
    3  0.000  0.016  0.000  0.026  0.000  0.000  0.000  0.000  0.000  0.042
    4  0.000  0.016  0.000  0.026  0.000  0.000  0.000  0.000  0.000  0.042
    5  0.005  0.010  0.001  0.044  0.000  0.000  0.000  0.000  0.000  0.060
    6  0.000  0.002  0.000  0.024  0.000  0.000  0.000  0.000  0.000  0.026
    7  0.007  0.060  0.002  0.006  0.000  0.000  0.000  0.000  0.000  0.074
    8  0.005  0.010  0.001  0.044  0.000  0.000  0.000  0.000  0.000  0.060
    9  0.000  0.002  0.000  0.024  0.000  0.000  0.000  0.000  0.000  0.026
   10  0.007  0.060  0.002  0.006  0.000  0.000  0.000  0.000  0.000  0.074
tot    0.025  0.178  0.006  0.203  0.005  0.066  0.000  0.042  0.003  0.529

band    11 # energy   -8.12562210 # occ.  1.00000000

ion      s     py     pz     px    dxy    dyz    dz2    dxz  x2-y2    tot
    1  0.049  0.000  0.000  0.000  0.000  0.000  0.018  0.000  0.000  0.067
    2  0.049  0.000  0.000  0.000  0.000  0.000  0.018  0.000  0.000  0.067
    3  0.001  0.000  0.041  0.000  0.000  0.000  0.000  0.000  0.000  0.042
    4  0.001  0.000  0.041  0.000  0.000  0.000  0.000  0.000  0.000  0.042
    5  0.003  0.000  0.035  0.008  0.000  0.000  0.000  0.000  0.000  0.047
    6  0.003  0.006  0.035  0.002  0.000  0.000  0.000  0.000  0.000  0.047
    7  0.003  0.006  0.035  0.002  0.000  0.000  0.000  0.000  0.000  0.047
    8  0.003  0.000  0.035  0.008  0.000  0.000  0.000  0.000  0.000  0.047
    9  0.003  0.006  0.035  0.002  0.000  0.000  0.000  0.000  0.000  0.047
   10  0.003  0.006  0.035  0.002  0.000  0.000  0.000  0.000  0.000  0.047
tot    0.118  0.025  0.293  0.025  0.000  0.000  0.036  0.000  0.000  0.498

band    12 # energy   -7.74633359 # occ.  1.00000000

ion      s     py     pz     px    dxy    dyz    dz2    dxz  x2-y2    tot
    1  0.000  0.020  0.000  0.005  0.003  0.002  0.000  0.010  0.012  0.052
    2  0.000  0.020  0.000  0.005  0.003  0.002  0.000  0.010  0.012  0.052
    3  0.000  0.007  0.000  0.027  0.000  0.000  0.000  0.000  0.000  0.034
    4  0.000  0.007  0.000  0.027  0.000  0.000  0.000  0.000  0.000  0.034
    5  0.001  0.005  0.004  0.068  0.000  0.000  0.000  0.000  0.000  0.078
    6  0.001  0.065  0.004  0.002  0.000  0.000  0.000  0.000  0.000  0.072
    7  0.000  0.009  0.000  0.017  0.000  0.000  0.000  0.000  0.000  0.025
    8  0.001  0.005  0.004  0.068  0.000  0.000  0.000  0.000  0.000  0.078
    9  0.001  0.065  0.004  0.002  0.000  0.000  0.000  0.000  0.000  0.072
   10  0.000  0.009  0.000  0.017  0.000  0.000  0.000  0.000  0.000  0.025
tot    0.002  0.212  0.016  0.238  0.006  0.005  0.000  0.019  0.024  0.522

band    13 # energy   -7.74631439 # occ.  1.00000000

ion      s     py     pz     px    dxy    dyz    dz2    dxz  x2-y2    tot
    1  0.000  0.005  0.000  0.020  0.012  0.010  0.000  0.002  0.003  0.052
    2  0.000  0.005  0.000  0.020  0.012  0.010  0.000  0.002  0.003  0.052
    3  0.000  0.027  0.000  0.007  0.000  0.000  0.000  0.000  0.000  0.034
    4  0.000  0.027  0.000  0.007  0.000  0.000  0.000  0.000  0.000  0.034
    5  0.000  0.020  0.001  0.017  0.000  0.000  0.000  0.000  0.000  0.039
    6  0.000  0.005  0.002  0.038  0.000  0.000  0.000  0.000  0.000  0.045
    7  0.001  0.062  0.005  0.024  0.000  0.000  0.000  0.000  0.000  0.091
    8  0.000  0.020  0.001  0.017  0.000  0.000  0.000  0.000  0.000  0.039
    9  0.000  0.005  0.002  0.038  0.000  0.000  0.000  0.000  0.000  0.045
   10  0.001  0.062  0.005  0.024  0.000  0.000  0.000  0.000  0.000  0.091
tot    0.002  0.238  0.016  0.212  0.024  0.019  0.000  0.005  0.006  0.522

band    14 # energy   -7.48343697 # occ.  1.00000000

ion      s     py     pz     px    dxy    dyz    dz2    dxz  x2-y2    tot
    1  0.078  0.000  0.000  0.000  0.000  0.000  0.037  0.000  0.000  0.116
    2  0.078  0.000  0.000  0.000  0.000  0.000  0.037  0.000  0.000  0.116
    3  0.000  0.000  0.000  0.000  0.000  0.000  0.000  0.000  0.000  0.000
    4  0.000  0.000  0.000  0.000  0.000  0.000  0.000  0.000  0.000  0.000
    5  0.000  0.058  0.000  0.000  0.000  0.000  0.000  0.000  0.000  0.058
    6  0.000  0.015  0.000  0.043  0.000  0.000  0.000  0.000  0.000  0.058
    7  0.000  0.014  0.000  0.043  0.000  0.000  0.000  0.000  0.000  0.058
    8  0.000  0.058  0.000  0.000  0.000  0.000  0.000  0.000  0.000  0.058
    9  0.000  0.015  0.000  0.043  0.000  0.000  0.000  0.000  0.000  0.058
   10  0.000  0.014  0.000  0.043  0.000  0.000  0.000  0.000  0.000  0.058
tot    0.157  0.173  0.000  0.173  0.000  0.000  0.074  0.000  0.000  0.577

band    15 # energy   -6.23945206 # occ.  1.00000000

ion      s     py     pz     px    dxy    dyz    dz2    dxz  x2-y2    tot
    1  0.000  0.000  0.053  0.000  0.000  0.000  0.000  0.000  0.000  0.053
    2  0.000  0.000  0.053  0.000  0.000  0.000  0.000  0.000  0.000  0.053
    3  0.000  0.000  0.000  0.000  0.000  0.000  0.000  0.000  0.000  0.000
    4  0.000  0.000  0.000  0.000  0.000  0.000  0.000  0.000  0.000  0.000
    5  0.000  0.073  0.000  0.000  0.000  0.000  0.000  0.000  0.000  0.073
    6  0.000  0.018  0.000  0.055  0.000  0.000  0.000  0.000  0.000  0.073
    7  0.000  0.018  0.000  0.055  0.000  0.000  0.000  0.000  0.000  0.073
    8  0.000  0.073  0.000  0.000  0.000  0.000  0.000  0.000  0.000  0.073
    9  0.000  0.018  0.000  0.055  0.000  0.000  0.000  0.000  0.000  0.073
   10  0.000  0.018  0.000  0.055  0.000  0.000  0.000  0.000  0.000  0.073
tot    0.000  0.219  0.106  0.219  0.000  0.000  0.000  0.000  0.000  0.545

band    16 # energy   -5.79737350 # occ.  1.00000000

ion      s     py     pz     px    dxy    dyz    dz2    dxz  x2-y2    tot
    1  0.000  0.001  0.000  0.000  0.000  0.000  0.000  0.103  0.125  0.229
    2  0.000  0.001  0.000  0.000  0.000  0.000  0.000  0.103  0.125  0.229
    3  0.000  0.000  0.000  0.000  0.000  0.000  0.000  0.000  0.000  0.000
    4  0.000  0.000  0.000  0.000  0.000  0.000  0.000  0.000  0.000  0.000
    5  0.002  0.000  0.036  0.006  0.000  0.000  0.000  0.000  0.000  0.043
    6  0.000  0.005  0.008  0.039  0.000  0.000  0.000  0.000  0.000  0.052
    7  0.001  0.004  0.010  0.036  0.000  0.000  0.000  0.000  0.000  0.051
    8  0.002  0.000  0.036  0.006  0.000  0.000  0.000  0.000  0.000  0.043
    9  0.000  0.005  0.008  0.039  0.000  0.000  0.000  0.000  0.000  0.052
   10  0.001  0.004  0.010  0.036  0.000  0.000  0.000  0.000  0.000  0.051
tot    0.005  0.021  0.107  0.162  0.001  0.000  0.000  0.206  0.250  0.751

band    17 # energy   -5.79736012 # occ.  1.00000000

ion      s     py     pz     px    dxy    dyz    dz2    dxz  x2-y2    tot
    1  0.000  0.000  0.000  0.001  0.125  0.103  0.000  0.000  0.000  0.229
    2  0.000  0.000  0.000  0.001  0.125  0.103  0.000  0.000  0.000  0.229
    3  0.000  0.000  0.000  0.000  0.000  0.000  0.000  0.000  0.000  0.000
    4  0.000  0.000  0.000  0.000  0.000  0.000  0.000  0.000  0.000  0.000
    5  0.000  0.054  0.000  0.000  0.000  0.000  0.000  0.000  0.000  0.054
    6  0.001  0.013  0.028  0.003  0.000  0.000  0.000  0.000  0.000  0.046
    7  0.001  0.014  0.025  0.006  0.000  0.000  0.000  0.000  0.000  0.047
    8  0.000  0.054  0.000  0.000  0.000  0.000  0.000  0.000  0.000  0.054
    9  0.001  0.013  0.028  0.003  0.000  0.000  0.000  0.000  0.000  0.046
   10  0.001  0.014  0.025  0.006  0.000  0.000  0.000  0.000  0.000  0.047
tot    0.005  0.162  0.107  0.021  0.250  0.206  0.000  0.000  0.001  0.751

band    18 # energy   -5.67430063 # occ.  1.00000000

ion      s     py     pz     px    dxy    dyz    dz2    dxz  x2-y2    tot
    1  0.000  0.000  0.000  0.003  0.084  0.060  0.000  0.004  0.006  0.158
    2  0.000  0.000  0.000  0.003  0.084  0.060  0.000  0.004  0.006  0.158
    3  0.000  0.000  0.000  0.000  0.000  0.000  0.000  0.000  0.000  0.000
    4  0.000  0.000  0.000  0.000  0.000  0.000  0.000  0.000  0.000  0.000
    5  0.007  0.000  0.097  0.003  0.000  0.000  0.000  0.000  0.000  0.107
    6  0.004  0.003  0.052  0.000  0.000  0.000  0.000  0.000  0.000  0.059
    7  0.000  0.001  0.007  0.001  0.000  0.000  0.000  0.000  0.000  0.010
    8  0.007  0.000  0.097  0.003  0.000  0.000  0.000  0.000  0.000  0.107
    9  0.004  0.003  0.052  0.000  0.000  0.000  0.000  0.000  0.000  0.059
   10  0.000  0.001  0.007  0.001  0.000  0.000  0.000  0.000  0.000  0.010
tot    0.021  0.008  0.313  0.015  0.169  0.120  0.000  0.009  0.012  0.668

band    19 # energy   -5.67427933 # occ.  1.00000000

ion      s     py     pz     px    dxy    dyz    dz2    dxz  x2-y2    tot
    1  0.000  0.003  0.000  0.000  0.006  0.004  0.000  0.060  0.084  0.158
    2  0.000  0.003  0.000  0.000  0.006  0.004  0.000  0.060  0.084  0.158
    3  0.000  0.000  0.000  0.000  0.000  0.000  0.000  0.000  0.000  0.000
    4  0.000  0.000  0.000  0.000  0.000  0.000  0.000  0.000  0.000  0.000
    5  0.000  0.002  0.007  0.000  0.000  0.000  0.000  0.000  0.000  0.010
    6  0.004  0.000  0.052  0.002  0.000  0.000  0.000  0.000  0.000  0.058
    7  0.007  0.002  0.097  0.001  0.000  0.000  0.000  0.000  0.000  0.107
    8  0.000  0.002  0.007  0.000  0.000  0.000  0.000  0.000  0.000  0.010
    9  0.004  0.000  0.052  0.002  0.000  0.000  0.000  0.000  0.000  0.058
   10  0.007  0.002  0.097  0.001  0.000  0.000  0.000  0.000  0.000  0.107
tot    0.021  0.015  0.313  0.008  0.012  0.009  0.000  0.120  0.169  0.668

band    20 # energy   -4.95984950 # occ.  1.00000000

ion      s     py     pz     px    dxy    dyz    dz2    dxz  x2-y2    tot
    1  0.000  0.000  0.013  0.000  0.000  0.000  0.000  0.000  0.000  0.013
    2  0.000  0.000  0.013  0.000  0.000  0.000  0.000  0.000  0.000  0.013
    3  0.002  0.000  0.007  0.000  0.000  0.000  0.000  0.000  0.000  0.009
    4  0.002  0.000  0.007  0.000  0.000  0.000  0.000  0.000  0.000  0.009
    5  0.000  0.000  0.076  0.000  0.000  0.000  0.000  0.000  0.000  0.076
    6  0.000  0.000  0.076  0.000  0.000  0.000  0.000  0.000  0.000  0.076
    7  0.000  0.000  0.076  0.000  0.000  0.000  0.000  0.000  0.000  0.076
    8  0.000  0.000  0.076  0.000  0.000  0.000  0.000  0.000  0.000  0.076
    9  0.000  0.000  0.076  0.000  0.000  0.000  0.000  0.000  0.000  0.076
   10  0.000  0.000  0.076  0.000  0.000  0.000  0.000  0.000  0.000  0.076
tot    0.005  0.000  0.496  0.000  0.000  0.000  0.000  0.000  0.000  0.501

band    21 # energy   -4.76234276 # occ.  1.00000000

ion      s     py     pz     px    dxy    dyz    dz2    dxz  x2-y2    tot
    1  0.001  0.000  0.000  0.000  0.000  0.000  0.246  0.000  0.000  0.247
    2  0.001  0.000  0.000  0.000  0.000  0.000  0.246  0.000  0.000  0.247
    3  0.010  0.000  0.061  0.000  0.000  0.000  0.000  0.000  0.000  0.071
    4  0.010  0.000  0.061  0.000  0.000  0.000  0.000  0.000  0.000  0.071
    5  0.000  0.000  0.003  0.010  0.000  0.000  0.000  0.000  0.000  0.014
    6  0.000  0.008  0.003  0.003  0.000  0.000  0.000  0.000  0.000  0.014
    7  0.000  0.008  0.003  0.003  0.000  0.000  0.000  0.000  0.000  0.014
    8  0.000  0.000  0.003  0.010  0.000  0.000  0.000  0.000  0.000  0.014
    9  0.000  0.008  0.003  0.003  0.000  0.000  0.000  0.000  0.000  0.014
   10  0.000  0.008  0.003  0.003  0.000  0.000  0.000  0.000  0.000  0.014
tot    0.023  0.031  0.142  0.031  0.000  0.000  0.493  0.000  0.000  0.720

band    22 # energy   -4.69051891 # occ.  1.00000000

ion      s     py     pz     px    dxy    dyz    dz2    dxz  x2-y2    tot
    1  0.000  0.016  0.000  0.001  0.000  0.001  0.000  0.018  0.001  0.037
    2  0.000  0.016  0.000  0.001  0.000  0.001  0.000  0.018  0.001  0.037
    3  0.000  0.000  0.000  0.013  0.000  0.000  0.000  0.000  0.000  0.013
    4  0.000  0.000  0.000  0.013  0.000  0.000  0.000  0.000  0.000  0.013
    5  0.006  0.001  0.101  0.034  0.000  0.000  0.000  0.000  0.000  0.141
    6  0.003  0.003  0.045  0.023  0.000  0.000  0.000  0.000  0.000  0.073
    7  0.001  0.000  0.011  0.021  0.000  0.000  0.000  0.000  0.000  0.033
    8  0.006  0.001  0.101  0.034  0.000  0.000  0.000  0.000  0.000  0.141
    9  0.003  0.003  0.045  0.023  0.000  0.000  0.000  0.000  0.000  0.073
   10  0.001  0.000  0.011  0.021  0.000  0.000  0.000  0.000  0.000  0.033
tot    0.019  0.041  0.314  0.182  0.000  0.001  0.000  0.036  0.002  0.595

band    23 # energy   -4.69050727 # occ.  1.00000000

ion      s     py     pz     px    dxy    dyz    dz2    dxz  x2-y2    tot
    1  0.000  0.001  0.000  0.016  0.001  0.018  0.000  0.001  0.000  0.037
    2  0.000  0.001  0.000  0.016  0.001  0.018  0.000  0.001  0.000  0.037
    3  0.000  0.013  0.000  0.000  0.000  0.000  0.000  0.000  0.000  0.013
    4  0.000  0.013  0.000  0.000  0.000  0.000  0.000  0.000  0.000  0.013
    5  0.000  0.019  0.004  0.001  0.000  0.000  0.000  0.000  0.000  0.024
    6  0.004  0.028  0.060  0.000  0.000  0.000  0.000  0.000  0.000  0.092
    7  0.006  0.031  0.093  0.002  0.000  0.000  0.000  0.000  0.000  0.132
    8  0.000  0.019  0.004  0.001  0.000  0.000  0.000  0.000  0.000  0.024
    9  0.004  0.028  0.060  0.000  0.000  0.000  0.000  0.000  0.000  0.092
   10  0.006  0.031  0.093  0.002  0.000  0.000  0.000  0.000  0.000  0.132
tot    0.019  0.182  0.314  0.041  0.002  0.036  0.000  0.001  0.000  0.595

band    24 # energy   -3.95118790 # occ.  1.00000000

ion      s     py     pz     px    dxy    dyz    dz2    dxz  x2-y2    tot
    1  0.000  0.002  0.000  0.000  0.014  0.014  0.000  0.194  0.199  0.424
    2  0.000  0.002  0.000  0.000  0.014  0.014  0.000  0.194  0.199  0.424
    3  0.000  0.000  0.000  0.004  0.000  0.000  0.000  0.000  0.000  0.005
    4  0.000  0.000  0.000  0.004  0.000  0.000  0.000  0.000  0.000  0.005
    5  0.000  0.000  0.005  0.003  0.000  0.000  0.000  0.000  0.000  0.008
    6  0.000  0.002  0.003  0.000  0.000  0.000  0.000  0.000  0.000  0.005
    7  0.000  0.001  0.000  0.000  0.000  0.000  0.000  0.000  0.000  0.002
    8  0.000  0.000  0.005  0.003  0.000  0.000  0.000  0.000  0.000  0.008
    9  0.000  0.002  0.003  0.000  0.000  0.000  0.000  0.000  0.000  0.005
   10  0.000  0.001  0.000  0.000  0.000  0.000  0.000  0.000  0.000  0.002
tot    0.000  0.012  0.016  0.016  0.029  0.028  0.000  0.388  0.398  0.886

band    25 # energy   -3.95118377 # occ.  1.00000000

ion      s     py     pz     px    dxy    dyz    dz2    dxz  x2-y2    tot
    1  0.000  0.000  0.000  0.002  0.199  0.194  0.000  0.014  0.014  0.424
    2  0.000  0.000  0.000  0.002  0.199  0.194  0.000  0.014  0.014  0.424
    3  0.000  0.004  0.000  0.000  0.000  0.000  0.000  0.000  0.000  0.005
    4  0.000  0.004  0.000  0.000  0.000  0.000  0.000  0.000  0.000  0.005
    5  0.000  0.001  0.000  0.000  0.000  0.000  0.000  0.000  0.000  0.002
    6  0.000  0.001  0.003  0.002  0.000  0.000  0.000  0.000  0.000  0.005
    7  0.000  0.002  0.005  0.001  0.000  0.000  0.000  0.000  0.000  0.008
    8  0.000  0.001  0.000  0.000  0.000  0.000  0.000  0.000  0.000  0.002
    9  0.000  0.001  0.003  0.002  0.000  0.000  0.000  0.000  0.000  0.005
   10  0.000  0.002  0.005  0.001  0.000  0.000  0.000  0.000  0.000  0.008
tot    0.000  0.016  0.016  0.012  0.398  0.388  0.000  0.028  0.029  0.886

band    26 # energy   -3.82979330 # occ.  1.00000000

ion      s     py     pz     px    dxy    dyz    dz2    dxz  x2-y2    tot
    1  0.000  0.001  0.000  0.005  0.099  0.066  0.000  0.020  0.031  0.222
    2  0.000  0.001  0.000  0.005  0.099  0.066  0.000  0.020  0.031  0.222
    3  0.000  0.004  0.000  0.013  0.000  0.000  0.000  0.000  0.000  0.017
    4  0.000  0.004  0.000  0.013  0.000  0.000  0.000  0.000  0.000  0.017
    5  0.003  0.010  0.002  0.038  0.000  0.000  0.000  0.000  0.000  0.052
    6  0.000  0.010  0.000  0.034  0.000  0.000  0.000  0.000  0.000  0.044
    7  0.003  0.012  0.002  0.036  0.000  0.000  0.000  0.000  0.000  0.052
    8  0.003  0.010  0.002  0.038  0.000  0.000  0.000  0.000  0.000  0.052
    9  0.000  0.010  0.000  0.034  0.000  0.000  0.000  0.000  0.000  0.044
   10  0.003  0.012  0.002  0.036  0.000  0.000  0.000  0.000  0.000  0.052
tot    0.012  0.074  0.006  0.250  0.198  0.132  0.000  0.040  0.061  0.775

band    27 # energy   -3.82977028 # occ.  1.00000000

ion      s     py     pz     px    dxy    dyz    dz2    dxz  x2-y2    tot
    1  0.000  0.005  0.000  0.001  0.031  0.020  0.000  0.066  0.099  0.222
    2  0.000  0.005  0.000  0.001  0.031  0.020  0.000  0.066  0.099  0.222
    3  0.000  0.013  0.000  0.004  0.000  0.000  0.000  0.000  0.000  0.017
    4  0.000  0.013  0.000  0.004  0.000  0.000  0.000  0.000  0.000  0.017
    5  0.001  0.034  0.001  0.011  0.000  0.000  0.000  0.000  0.000  0.047
    6  0.004  0.038  0.002  0.011  0.000  0.000  0.000  0.000  0.000  0.055
    7  0.001  0.036  0.001  0.009  0.000  0.000  0.000  0.000  0.000  0.047
    8  0.001  0.034  0.001  0.011  0.000  0.000  0.000  0.000  0.000  0.047
    9  0.004  0.038  0.002  0.011  0.000  0.000  0.000  0.000  0.000  0.055
   10  0.001  0.036  0.001  0.009  0.000  0.000  0.000  0.000  0.000  0.047
tot    0.012  0.250  0.006  0.074  0.062  0.040  0.000  0.132  0.198  0.775

band    28 # energy   -3.60362109 # occ.  1.00000000

ion      s     py     pz     px    dxy    dyz    dz2    dxz  x2-y2    tot
    1  0.015  0.000  0.000  0.000  0.000  0.000  0.431  0.000  0.000  0.446
    2  0.015  0.000  0.000  0.000  0.000  0.000  0.431  0.000  0.000  0.446
    3  0.000  0.000  0.000  0.000  0.000  0.000  0.000  0.000  0.000  0.000
    4  0.000  0.000  0.000  0.000  0.000  0.000  0.000  0.000  0.000  0.000
    5  0.000  0.005  0.000  0.000  0.000  0.000  0.000  0.000  0.000  0.005
    6  0.000  0.001  0.000  0.004  0.000  0.000  0.000  0.000  0.000  0.005
    7  0.000  0.001  0.000  0.004  0.000  0.000  0.000  0.000  0.000  0.005
    8  0.000  0.005  0.000  0.000  0.000  0.000  0.000  0.000  0.000  0.005
    9  0.000  0.001  0.000  0.004  0.000  0.000  0.000  0.000  0.000  0.005
   10  0.000  0.001  0.000  0.004  0.000  0.000  0.000  0.000  0.000  0.005
tot    0.029  0.015  0.000  0.015  0.000  0.000  0.863  0.000  0.000  0.922

band    29 # energy   -3.40891130 # occ.  1.00000000

ion      s     py     pz     px    dxy    dyz    dz2    dxz  x2-y2    tot
    1  0.000  0.000  0.000  0.012  0.161  0.040  0.000  0.000  0.001  0.215
    2  0.000  0.000  0.000  0.012  0.161  0.040  0.000  0.000  0.001  0.215
    3  0.000  0.000  0.000  0.000  0.000  0.000  0.000  0.000  0.000  0.000
    4  0.000  0.000  0.000  0.000  0.000  0.000  0.000  0.000  0.000  0.000
    5  0.000  0.001  0.009  0.016  0.000  0.000  0.000  0.000  0.000  0.026
    6  0.000  0.003  0.003  0.061  0.000  0.000  0.000  0.000  0.000  0.067
    7  0.000  0.008  0.002  0.068  0.000  0.000  0.000  0.000  0.000  0.078
    8  0.000  0.001  0.009  0.016  0.000  0.000  0.000  0.000  0.000  0.026
    9  0.000  0.003  0.003  0.061  0.000  0.000  0.000  0.000  0.000  0.067
   10  0.000  0.008  0.002  0.068  0.000  0.000  0.000  0.000  0.000  0.078
tot    0.000  0.025  0.028  0.316  0.322  0.080  0.000  0.001  0.003  0.775

band    30 # energy   -3.40890112 # occ.  1.00000000

ion      s     py     pz     px    dxy    dyz    dz2    dxz  x2-y2    tot
    1  0.000  0.012  0.000  0.000  0.001  0.000  0.000  0.040  0.161  0.215
    2  0.000  0.012  0.000  0.000  0.001  0.000  0.000  0.040  0.161  0.215
    3  0.000  0.000  0.000  0.000  0.000  0.000  0.000  0.000  0.000  0.000
    4  0.000  0.000  0.000  0.000  0.000  0.000  0.000  0.000  0.000  0.000
    5  0.000  0.088  0.000  0.000  0.000  0.000  0.000  0.000  0.000  0.088
    6  0.000  0.031  0.006  0.010  0.000  0.000  0.000  0.000  0.000  0.047
    7  0.000  0.026  0.008  0.002  0.000  0.000  0.000  0.000  0.000  0.036
    8  0.000  0.088  0.000  0.000  0.000  0.000  0.000  0.000  0.000  0.088
    9  0.000  0.031  0.006  0.010  0.000  0.000  0.000  0.000  0.000  0.047
   10  0.000  0.026  0.008  0.002  0.000  0.000  0.000  0.000  0.000  0.036
tot    0.000  0.316  0.028  0.025  0.003  0.001  0.000  0.080  0.322  0.775

band    31 # energy   -3.20995778 # occ.  1.00000000

ion      s     py     pz     px    dxy    dyz    dz2    dxz  x2-y2    tot
    1  0.010  0.000  0.000  0.000  0.000  0.000  0.181  0.000  0.000  0.191
    2  0.010  0.000  0.000  0.000  0.000  0.000  0.181  0.000  0.000  0.191
    3  0.001  0.000  0.053  0.000  0.000  0.000  0.000  0.000  0.000  0.054
    4  0.001  0.000  0.053  0.000  0.000  0.000  0.000  0.000  0.000  0.054
    5  0.001  0.000  0.024  0.009  0.000  0.000  0.000  0.000  0.000  0.033
    6  0.001  0.007  0.024  0.002  0.000  0.000  0.000  0.000  0.000  0.033
    7  0.001  0.007  0.024  0.002  0.000  0.000  0.000  0.000  0.000  0.033
    8  0.001  0.000  0.024  0.009  0.000  0.000  0.000  0.000  0.000  0.033
    9  0.001  0.007  0.024  0.002  0.000  0.000  0.000  0.000  0.000  0.033