<?xml version="1.0" encoding="ISO-8859-1"?>
<modeling>
 <generator>
  <i name="program" type="string">vasp </i>
  <i name="version" type="string">5.4.4.18Apr17-6-g9f103f2a35  </i>
  <i name="subversion" type="string">(build May  1 2020 15:48:39) complex            parallel </i>
  <i name="platform" type="string">LinuxGNU </i>
  <i name="date" type="string">2020 06 17 </i>
  <i name="time" type="string">05:02:54 </i>
 </generator>
 <incar>
  <i type="int" name="ISTART">     1</i>
  <i type="string" name="PREC">accurate</i>
  <i type="string" name="ALGO"> Normal</i>
  <i type="int" name="ISPIN">     2</i>
  <i name="AMIN">      0.01000000</i>
  <i type="int" name="NELM">   400</i>
  <i type="int" name="IBRION">     2</i>
  <i name="EDIFF">      0.00010000</i>
  <i type="int" name="NSW">    99</i>
  <i type="int" name="ISIF">     3</i>
  <i name="ENCUT">    520.00000000</i>
  <v name="MAGMOM">      5.00000000      5.00000000      0.60000000      0.60000000      0.60000000      0.60000000      0.60000000      0.60000000      0.60000000      0.60000000</v>
  <i type="string" name="LREAL"> Auto</i>
  <i type="int" name="ISMEAR">    -5</i>
  <i name="SIGMA">      0.05000000</i>
  <i type="logical" name="LWAVE"> F  </i>
  <i type="int" name="LORBIT">    11</i>
  <v type="int" name="KPOINT_BSE">    -1     0     0     0</v>
  <i type="int" name="NELM">   400</i>
  <i type="string" name="GGA"> Bo</i>
  <i name="PARAM1">      0.18333333</i>
  <i name="PARAM2">      0.22000000</i>
  <i type="logical" name="LUSE_VDW"> T  </i>
  <i name="AGGAC">      0.00000000</i>
 </incar>
 <structure name="primitive_cell" >
  <crystal>
   <varray name="basis" >
    <v>       6.90777700      -0.00000000       0.00000000 </v>
    <v>       3.45388800       5.98231000       0.00000000 </v>
    <v>       0.00000000       0.00000000      23.44458800 </v>
   </varray>
   <i name="volume">    968.83501932 </i>
   <varray name="rec_basis" >
    <v>       0.14476437      -0.08357974       0.00000000 </v>
    <v>       0.00000000       0.16715951      -0.00000000 </v>
    <v>      -0.00000000       0.00000000       0.04265377 </v>
   </varray>
  </crystal>
  <varray name="positions" >
   <v>       0.33333300       0.33333300       0.49992500 </v>
   <v>       0.00042000       0.37322400      -0.42624800 </v>
   <v>      -0.37364300       0.00042000      -0.42624800 </v>
   <v>       0.37322400      -0.37364300      -0.42624800 </v>
   <v>       0.37364300      -0.00042000       0.42624800 </v>
   <v>      -0.37322400       0.37364300       0.42624800 </v>
   <v>      -0.00042000      -0.37322400       0.42624800 </v>
   <v>      -0.33333300      -0.33333300      -0.49992500 </v>
   <v>       0.00000000       0.00000000       0.44821600 </v>
   <v>       0.00000000       0.00000000      -0.44821600 </v>
  </varray>
 </structure>
 <varray name="primitive_index" >
  <v type="int" >        1 </v>
  <v type="int" >        6 </v>
  <v type="int" >        5 </v>
  <v type="int" >        7 </v>
  <v type="int" >        8 </v>
  <v type="int" >       10 </v>
  <v type="int" >        9 </v>
  <v type="int" >        2 </v>
  <v type="int" >        3 </v>
  <v type="int" >        4 </v>
 </varray>
 <kpoints>
  <generation param="Gamma">
   <v type="int" name="divisions">       5        5        1 </v>
   <v name="usershift">      0.00000000       0.00000000       0.00000000 </v>
   <v name="genvec1">      0.20000000       0.00000000       0.00000000 </v>
   <v name="genvec2">      0.00000000       0.20000000       0.00000000 </v>
   <v name="genvec3">      0.00000000       0.00000000       1.00000000 </v>
   <v name="shift">      0.00000000       0.00000000       0.00000000 </v>
  </generation>
  <varray name="kpointlist" >
   <v>       0.00000000       0.00000000       0.00000000 </v>
   <v>       0.20000000       0.00000000       0.00000000 </v>
   <v>       0.40000000       0.00000000       0.00000000 </v>
   <v>       0.40000000       0.20000000       0.00000000 </v>
   <v>      -0.40000000       0.20000000       0.00000000 </v>
  </varray>
  <varray name="weights" >
   <v>       0.04000000 </v>
   <v>       0.24000000 </v>
   <v>       0.24000000 </v>
   <v>       0.24000000 </v>
   <v>       0.24000000 </v>
  </varray>
  <varray name="tetrahedronlist"  type="int" >
   <v type="int" >        6        1        1        2        2 </v>
   <v type="int" >       12        1        2        2        2 </v>
   <v type="int" >       12        2        2        3        4 </v>
   <v type="int" >       12        2        2        2        4 </v>
   <v type="int" >       12        2        3        3        4 </v>
   <v type="int" >       12        2        3        4        4 </v>
   <v type="int" >        6        2        2        4        4 </v>
   <v type="int" >       12        3        3        3        5 </v>
   <v type="int" >       12        3        3        4        5 </v>
   <v type="int" >       12        3        4        4        5 </v>
   <v type="int" >        6        3        3        5        5 </v>
   <v type="int" >       12        3        4        5        5 </v>
   <v type="int" >        6        4        4        5        5 </v>
   <v type="int" >       12        4        5        5        5 </v>
   <v type="int" >        6        5        5        5        5 </v>
  </varray>
  <i name="volumeweight">      0.00666667 </i>
 </kpoints>
 <parameters>
  <separator name="general" >
   <i type="string" name="SYSTEM">unknown system</i>
   <i type="logical" name="LCOMPAT"> F  </i>
  </separator>
  <separator name="electronic" >
   <i type="string" name="PREC">accura</i>
   <i name="ENMAX">    520.00000000</i>
   <i name="ENAUG">    402.10800000</i>
   <i name="EDIFF">      0.00010000</i>
   <i type="int" name="IALGO">    38</i>
   <i type="int" name="IWAVPR">    11</i>
   <i type="int" name="NBANDS">    48</i>
   <i name="NELECT">     56.00000000</i>
   <i type="int" name="TURBO">     0</i>
   <i type="int" name="IRESTART">     0</i>
   <i type="int" name="NREBOOT">     0</i>
   <i type="int" name="NMIN">     0</i>
   <i name="EREF">      0.00000000</i>
   <separator name="electronic smearing" >
    <i type="int" name="ISMEAR">    -5</i>
    <i name="SIGMA">      0.05000000</i>
    <i name="KSPACING">      0.50000000</i>
    <i type="logical" name="KGAMMA"> T  </i>
   </separator>
   <separator name="electronic projectors" >
    <i type="logical" name="LREAL"> T  </i>
    <v name="ROPT">     -0.00025000     -0.00025000     -0.00025000</v>
    <i type="int" name="LMAXPAW">  -100</i>
    <i type="int" name="LMAXMIX">     2</i>
    <i type="logical" name="NLSPLINE"> F  </i>
   </separator>
   <separator name="electronic startup" >
    <i type="int" name="ISTART">     0</i>
    <i type="int" name="ICHARG">     2</i>
    <i type="int" name="INIWAV">     1</i>
   </separator>
   <separator name="electronic spin" >
    <i type="int" name="ISPIN">     2</i>
    <i type="logical" name="LNONCOLLINEAR"> F  </i>
    <v name="MAGMOM">      5.00000000      5.00000000      0.60000000      0.60000000      0.60000000      0.60000000      0.60000000      0.60000000      0.60000000      0.60000000</v>
    <i name="NUPDOWN">     -1.00000000</i>
    <i type="logical" name="LSORBIT"> F  </i>
    <v name="SAXIS">      0.00000000      0.00000000      1.00000000</v>
    <i type="logical" name="LSPIRAL"> F  </i>
    <v name="QSPIRAL">      0.00000000      0.00000000      0.00000000</v>
    <i type="logical" name="LZEROZ"> F  </i>
   </separator>
   <separator name="electronic exchange-correlation" >
    <i type="logical" name="LASPH"> F  </i>
    <i type="logical" name="LMETAGGA"> F  </i>
   </separator>
   <separator name="electronic convergence" >
    <i type="int" name="NELM">   400</i>
    <i type="int" name="NELMDL">     0</i>
    <i type="int" name="NELMIN">     2</i>
    <i name="ENINI">    520.00000000</i>
    <separator name="electronic convergence detail" >
     <i type="logical" name="LDIAG"> T  </i>
     <i type="logical" name="LSUBROT"> F  </i>
     <i name="WEIMIN">      0.00100000</i>
     <i name="EBREAK">      0.00000052</i>
     <i name="DEPER">      0.30000000</i>
     <i type="int" name="NRMM">     4</i>
     <i name="TIME">      0.40000000</i>
    </separator>
   </separator>
   <separator name="electronic mixer" >
    <i name="AMIX">      0.40000000</i>
    <i name="BMIX">      1.00000000</i>
    <i name="AMIN">      0.01000000</i>
    <i name="AMIX_MAG">      1.60000000</i>
    <i name="BMIX_MAG">      1.00000000</i>
    <separator name="electronic mixer details" >
     <i type="int" name="IMIX">     4</i>
     <i type="logical" name="MIXFIRST"> F  </i>
     <i type="int" name="MAXMIX">   -45</i>
     <i name="WC">    100.00000000</i>
     <i type="int" name="INIMIX">     1</i>
     <i type="int" name="MIXPRE">     1</i>
     <i type="int" name="MREMOVE">     5</i>
    </separator>
   </separator>
   <separator name="electronic dipolcorrection" >
    <i type="logical" name="LDIPOL"> F  </i>
    <i type="logical" name="LMONO"> F  </i>
    <i type="int" name="IDIPOL">     0</i>
    <i name="EPSILON">      1.00000000</i>
    <v name="DIPOL">   -100.00000000   -100.00000000   -100.00000000</v>
    <i name="EFIELD">      0.00000000</i>
   </separator>
  </separator>
  <separator name="grids" >
   <i type="int" name="NGX">    54</i>
   <i type="int" name="NGY">    54</i>
   <i type="int" name="NGZ">   180</i>
   <i type="int" name="NGXF">   108</i>
   <i type="int" name="NGYF">   108</i>
   <i type="int" name="NGZF">   360</i>
   <i type="logical" name="ADDGRID"> F  </i>
  </separator>
  <separator name="ionic" >
   <i type="int" name="NSW">    99</i>
   <i type="int" name="IBRION">     2</i>
   <i type="int" name="MDALGO">     0</i>
   <i type="int" name="ISIF">     3</i>
   <i name="PSTRESS">      0.00000000</i>
   <i name="EDIFFG">      0.00100000</i>
   <i type="int" name="NFREE">     1</i>
   <i name="POTIM">      0.50000000</i>
   <i name="SMASS">     -3.00000000</i>
   <i name="SCALEE">      1.00000000</i>
  </separator>
  <separator name="ionic md" >
   <i name="TEBEG">      0.00010000</i>
   <i name="TEEND">      0.00010000</i>
   <i type="int" name="NBLOCK">     1</i>
   <i type="int" name="KBLOCK">    99</i>
   <i type="int" name="NPACO">   256</i>
   <i name="APACO">     16.00000000</i>
  </separator>
  <separator name="symmetry" >
   <i type="int" name="ISYM">     2</i>
   <i name="SYMPREC">      0.00001000</i>
  </separator>
  <separator name="dos" >
   <i type="int" name="LORBIT">    11</i>
   <v name="RWIGS">     -1.00000000     -1.00000000     -1.00000000</v>
   <i type="int" name="NEDOS">   301</i>
   <i name="EMIN">     10.00000000</i>
   <i name="EMAX">    -10.00000000</i>
   <i name="EFERMI">      0.00000000</i>
  </separator>
  <separator name="writing" >
   <i type="int" name="NWRITE">     2</i>
   <i type="logical" name="LWAVE"> F  </i>
   <i type="logical" name="LDOWNSAMPLE"> F  </i>
   <i type="logical" name="LCHARG"> T  </i>
   <i type="logical" name="LPARD"> F  </i>
   <i type="logical" name="LVTOT"> F  </i>
   <i type="logical" name="LVHAR"> F  </i>
   <i type="logical" name="LELF"> F  </i>
   <i type="logical" name="LOPTICS"> F  </i>
   <v name="STM">      0.00000000      0.00000000      0.00000000      0.00000000      0.00000000      0.00000000      0.00000000</v>
  </separator>
  <separator name="performance" >
   <i type="int" name="NPAR">    16</i>
   <i type="int" name="NSIM">     4</i>
   <i type="int" name="NBLK">    -1</i>
   <i type="logical" name="LPLANE"> T  </i>
   <i type="logical" name="LSCALAPACK"> T  </i>
   <i type="logical" name="LSCAAWARE"> F  </i>
   <i type="logical" name="LSCALU"> F  </i>
   <i type="logical" name="LASYNC"> F  </i>
   <i type="logical" name="LORBITALREAL"> F  </i>
  </separator>
  <separator name="miscellaneous" >
   <i type="int" name="IDIOT">     3</i>
   <i type="int" name="ISPECIAL">     0</i>
   <i type="logical" name="LMUSIC"> F  </i>
   <v name="POMASS">     51.99600000     28.08500000     32.06600000</v>
   <v name="DARWINR">      0.00000000      0.00000000      0.00000000</v>
   <v name="DARWINV">      1.00000000      1.00000000      1.00000000</v>
   <i type="logical" name="LCORR"> T  </i>
  </separator>
  <i type="logical" name="GGA_COMPAT"> T  </i>
  <i type="logical" name="LBERRY"> F  </i>
  <i type="int" name="ICORELEVEL">     0</i>
  <i type="logical" name="LDAU"> F  </i>
  <i type="int" name="I_CONSTRAINED_M">     0</i>
  <separator name="electronic exchange-correlation" >
   <i type="string" name="GGA">BO</i>
   <i type="int" name="VOSKOWN">     0</i>
   <i type="logical" name="LHFCALC"> F  </i>
   <i type="string" name="PRECFOCK"></i>
   <i type="logical" name="LSYMGRAD"> F  </i>
   <i type="logical" name="LHFONE"> F  </i>
   <i type="logical" name="LRHFCALC"> F  </i>
   <i type="logical" name="LTHOMAS"> F  </i>
   <i type="logical" name="LMODELHF"> F  </i>
   <i name="ENCUT4O">     -1.00000000</i>
   <i type="int" name="EXXOEP">     0</i>
   <i type="int" name="FOURORBIT">     0</i>
   <i name="AEXX">      0.00000000</i>
   <i name="HFALPHA">      0.00000000</i>
   <i name="MCALPHA">      0.00000000</i>
   <i name="ALDAX">      1.00000000</i>
   <i name="AGGAX">      1.00000000</i>
   <i name="ALDAC">      1.00000000</i>
   <i name="AGGAC">      0.00000000</i>
   <i type="int" name="NKREDX">     1</i>
   <i type="int" name="NKREDY">     1</i>
   <i type="int" name="NKREDZ">     1</i>
   <i type="logical" name="SHIFTRED"> F  </i>
   <i type="logical" name="ODDONLY"> F  </i>
   <i type="logical" name="EVENONLY"> F  </i>
   <i type="int" name="LMAXFOCK">     0</i>
   <i type="int" name="NMAXFOCKAE">     0</i>
   <i type="logical" name="LFOCKAEDFT"> F  </i>
   <i name="HFSCREEN">      0.00000000</i>
   <i name="HFSCREENC">      0.00000000</i>
   <i type="int" name="NBANDSGWLOW">     0</i>
  </separator>
  <separator name="vdW DFT" >
   <i type="logical" name="LUSE_VDW"> T  </i>
   <i name="Zab_VDW">     -0.84910000</i>
   <i name="PARAM1">      0.18333333</i>
   <i name="PARAM2">      0.22000000</i>
   <i name="PARAM3">      0.00000000</i>
  </separator>
  <separator name="model GW" >
   <i type="int" name="MODEL_GW">     0</i>
   <i name="MODEL_EPS0">     58.13010116</i>
   <i name="MODEL_ALPHA">      1.00000000</i>
  </separator>
  <separator name="linear response parameters" >
   <i type="logical" name="LEPSILON"> F  </i>
   <i type="logical" name="LRPA"> F  </i>
   <i type="logical" name="LNABLA"> F  </i>
   <i type="logical" name="LVEL"> F  </i>
   <i type="int" name="KINTER">     0</i>
   <i name="CSHIFT">      0.10000000</i>
   <i name="OMEGAMAX">     -1.00000000</i>
   <i name="DEG_THRESHOLD">      0.00200000</i>
   <i name="RTIME">     -0.10000000</i>
   <i name="WPLASMAI">      0.00000000</i>
   <v name="DFIELD">      0.00000000      0.00000000      0.00000000</v>
   <v name="WPLASMA">      0.00000000      0.00000000      0.00000000      0.00000000      0.00000000      0.00000000      0.00000000      0.00000000      0.00000000</v>
  </separator>
  <separator name="orbital magnetization" >
   <i type="logical" name="NUCIND"> F  </i>
   <v name="MAGPOS">      0.00000000      0.00000000      0.00000000</v>
   <i type="logical" name="LNICSALL"> T  </i>
   <i type="logical" name="ORBITALMAG"> F  </i>
   <i type="logical" name="LMAGBLOCH"> F  </i>
   <i type="logical" name="LCHIMAG"> F  </i>
   <i type="logical" name="LGAUGE"> T  </i>
   <i type="int" name="MAGATOM">     0</i>
   <v name="MAGDIPOL">      0.00000000      0.00000000      0.00000000</v>
   <v name="AVECCONST">      0.00000000      0.00000000      0.00000000</v>
  </separator>
  <separator name="response functions" >
   <i type="logical" name="LADDER"> F  </i>
   <i type="logical" name="LRPAFORCE"> F  </i>
   <i type="logical" name="LFXC"> F  </i>
   <i type="logical" name="LHARTREE"> T  </i>
   <i type="int" name="IBSE">     0</i>
   <v type="int" name="KPOINT">    -1     0     0     0</v>
   <i type="logical" name="LTCTE"> F  </i>
   <i type="logical" name="LTETE"> F  </i>
   <i type="logical" name="LTRIPLET"> F  </i>
   <i type="logical" name="LFXCEPS"> F  </i>
   <i type="logical" name="LFXHEG"> F  </i>
   <i type="int" name="NATURALO">     2</i>
   <i type="logical" name="L2ORDER"> F  </i>
   <i type="logical" name="LMP2LT"> F  </i>
   <i type="logical" name="LUSEW"> F  </i>
   <i name="ENCUTGW">     -2.00000000</i>
   <i name="ENCUTGWSOFT">     -2.00000000</i>
   <i name="ENCUTLF">     -1.00000000</i>
   <i type="int" name="LMAXMP2">    -1</i>
   <i name="SCISSOR">      0.00000000</i>
   <i type="int" name="NOMEGA">     0</i>
   <i type="int" name="NOMEGAR">     0</i>
   <i type="int" name="NBANDSGW">    -1</i>
   <i type="int" name="NBANDSO">    -1</i>
   <i type="int" name="NBANDSV">    -1</i>
   <i type="int" name="NELM">   400</i>
   <i type="int" name="NELMHF">     1</i>
   <i type="int" name="DIM">     3</i>
   <i type="int" name="ANTIRES">     0</i>
   <i name="OMEGAMAX">    -30.00000000</i>
   <i name="OMEGAMIN">    -30.00000000</i>
   <i name="OMEGATL">   -200.00000000</i>
   <i type="int" name="OMEGAGRID">   140</i>
   <i name="CSHIFT">     -0.10000000</i>
   <i type="logical" name="SELFENERGY"> F  </i>
   <i type="logical" name="LSPECTRAL"> F  </i>
   <i type="logical" name="LSPECTRALGW"> F  </i>
   <i type="logical" name="LSINGLES"> F  </i>
   <i type="logical" name="LFERMIGW"> F  </i>
   <i type="logical" name="ODDONLYGW"> F  </i>
   <i type="logical" name="EVENONLYGW"> F  </i>
   <i type="int" name="NKREDLFX">     1</i>
   <i type="int" name="NKREDLFY">     1</i>
   <i type="int" name="NKREDLFZ">     1</i>
   <i type="int" name="MAXMEM">  2800</i>
   <i type="int" name="TELESCOPE">     0</i>
   <i type="int" name="TAUPAR">     1</i>
   <i type="int" name="OMEGAPAR">    -1</i>
   <i name="LAMBDA">      1.00000000</i>
  </separator>
  <separator name="External order field" >
   <i name="OFIELD_KAPPA">      0.00000000</i>
   <v name="OFIELD_K">      0.00000000      0.00000000      0.00000000</v>
   <i name="OFIELD_Q6_NEAR">      0.00000000</i>
   <i name="OFIELD_Q6_FAR">      0.00000000</i>
   <i name="OFIELD_A">      0.00000000</i>
  </separator>
 </parameters>
 <atominfo>
  <atoms>      10 </atoms>
  <types>       3 </types>
  <array name="atoms" >
   <dimension dim="1">ion</dimension>
   <field type="string">element</field>
   <field type="int">atomtype</field>
   <set>
    <rc><c>Cr</c><c>   1</c></rc>
    <rc><c>Cr</c><c>   1</c></rc>
    <rc><c>Si</c><c>   2</c></rc>
    <rc><c>Si</c><c>   2</c></rc>
    <rc><c>S </c><c>   3</c></rc>
    <rc><c>S </c><c>   3</c></rc>
    <rc><c>S </c><c>   3</c></rc>
    <rc><c>S </c><c>   3</c></rc>
    <rc><c>S </c><c>   3</c></rc>
    <rc><c>S </c><c>   3</c></rc>
   </set>
  </array>
  <array name="atomtypes" >
   <dimension dim="1">type</dimension>
   <field type="int">atomspertype</field>
   <field type="string">element</field>
   <field>mass</field>
   <field>valence</field>
   <field type="string">pseudopotential</field>
   <set>
    <rc><c>   2</c><c>Cr</c><c>     51.99600000</c><c>      6.00000000</c><c> PAW_PBE Cr 06Sep2000                   </c></rc>
    <rc><c>   2</c><c>Si</c><c>     28.08500000</c><c>      4.00000000</c><c> PAW_PBE Si 05Jan2001                   </c></rc>
    <rc><c>   6</c><c>S </c><c>     32.06600000</c><c>      6.00000000</c><c>  PAW_PBE S 17Jan2003                   </c></rc>
   </set>
  </array>
 </atominfo>
 <structure name="initialpos" >
  <crystal>
   <varray name="basis" >
    <v>       6.90777700      -0.00000000       0.00000000 </v>
    <v>       3.45388800       5.98231000       0.00000000 </v>
    <v>       0.00000000       0.00000000      23.44458800 </v>
   </varray>
   <i name="volume">    968.83501932 </i>
   <varray name="rec_basis" >
    <v>       0.14476437      -0.08357974       0.00000000 </v>
    <v>       0.00000000       0.16715951      -0.00000000 </v>
    <v>      -0.00000000       0.00000000       0.04265377 </v>
   </varray>
  </crystal>
  <varray name="positions" >
   <v>       0.33333300       0.33333300       0.49992500 </v>
   <v>       0.66666700       0.66666700       0.50007500 </v>
   <v>       0.00000000       0.00000000       0.44821600 </v>
   <v>       0.00000000       0.00000000       0.55178400 </v>
   <v>       0.62635700       0.00042000       0.57375200 </v>
   <v>       0.00042000       0.37322400       0.57375200 </v>
   <v>       0.37322400       0.62635700       0.57375200 </v>
   <v>       0.37364300       0.99958000       0.42624800 </v>
   <v>       0.99958000       0.62677600       0.42624800 </v>
   <v>       0.62677600       0.37364300       0.42624800 </v>
  </varray>
  <varray name="selective"  type="logical" >
   <v type="logical" >  F  F  F </v>
   <v type="logical" >  F  F  F </v>
   <v type="logical" >  T  T  T </v>
   <v type="logical" >  T  T  T </v>
   <v type="logical" >  T  T  T </v>
   <v type="logical" >  T  T  T </v>
   <v type="logical" >  T  T  T </v>
   <v type="logical" >  T  T  T </v>
   <v type="logical" >  T  T  T </v>
   <v type="logical" >  T  T  T </v>
  </varray>
  <nose>
   <v>      -3.00000000       0.00000000       0.00010000       0.00010000 </v>
  </nose>
 </structure>
 <calculation>
  <scstep>
   <time name="dav">   21.99   22.41</time>
   <time name="total">   74.88   75.54</time>
   <energy>
    <i name="alphaZ">     17.65701165 </i>
    <i name="ewald">   5985.89955237 </i>
    <i name="hartreedc">  -8127.15706175 </i>
    <i name="XCdc">     10.66369969 </i>
    <i name="pawpsdc">   1109.62514371 </i>
    <i name="pawaedc">  -1009.48240905 </i>
    <i name="eentropy">      0.00000000 </i>
    <i name="bandstr">    -22.43964650 </i>
    <i name="atom">   2430.09487864 </i>
    <i name="e_fr_energy">    394.86116874 </i>
    <i name="e_wo_entrp">    394.86116874 </i>
    <i name="e_0_energy">    394.86116874 </i>
   </energy>
  </scstep>
  <scstep>
   <time name="dav">   25.18   26.48</time>
   <time name="total">   25.19   26.48</time>
   <energy>
    <i name="e_fr_energy">     32.79312465 </i>
    <i name="e_wo_entrp">     32.79312465 </i>
    <i name="e_0_energy">     32.79312465 </i>
   </energy>
  </scstep>
  <scstep>
   <time name="dav">   30.78   32.02</time>
   <time name="total">   30.79   32.02</time>
   <energy>
    <i name="e_fr_energy">    -51.07753216 </i>
    <i name="e_wo_entrp">    -51.07753216 </i>
    <i name="e_0_energy">    -51.07753216 </i>
   </energy>
  </scstep>
  <scstep>
   <time name="dav">   30.32   30.50</time>
   <time name="total">   30.32   30.51</time>
   <energy>
    <i name="e_fr_energy">    -55.90938239 </i>
    <i name="e_wo_entrp">    -55.90938239 </i>
    <i name="e_0_energy">    -55.90938239 </i>
   </energy>
  </scstep>
  <scstep>
   <time name="dav">   29.42   29.50</time>
   <time name="total">   31.38   31.50</time>
   <energy>
    <i name="e_fr_energy">    -56.05163499 </i>
    <i name="e_wo_entrp">    -56.05163499 </i>
    <i name="e_0_energy">    -56.05163499 </i>
   </energy>
  </scstep>
  <scstep>
   <time name="dav">   29.30   29.53</time>
   <time name="total">   82.75   83.44</time>
   <energy>
    <i name="e_fr_energy">   -118.71088167 </i>
    <i name="e_wo_entrp">   -118.71088167 </i>
    <i name="e_0_energy">   -118.71088167 </i>
   </energy>
  </scstep>
  <scstep>
   <time name="dav">   26.83   26.94</time>
   <time name="total">   80.36   80.75</time>
   <energy>
    <i name="e_fr_energy">    -43.69662037 </i>
    <i name="e_wo_entrp">    -43.69662037 </i>
    <i name="e_0_energy">    -43.69662037 </i>
   </energy>
  </scstep>
  <scstep>
   <time name="dav">   29.68   29.90</time>
   <time name="total">   83.41   83.67</time>
   <energy>
    <i name="e_fr_energy">    -46.25955375 </i>
    <i name="e_wo_entrp">    -46.25955375 </i>
    <i name="e_0_energy">    -46.25955375 </i>
   </energy>
  </scstep>
  <scstep>
   <time name="dav">   33.70   34.01</time>
   <time name="total">   86.89   87.49</time>
   <energy>
    <i name="e_fr_energy">    -47.89818805 </i>
    <i name="e_wo_entrp">    -47.89818805 </i>
    <i name="e_0_energy">    -47.89818805 </i>
   </energy>
  </scstep>
  <scstep>
   <time name="dav">   30.83   31.18</time>
   <time name="total">   83.60   84.24</time>
   <energy>
    <i name="e_fr_energy">    -48.48233776 </i>
    <i name="e_wo_entrp">    -48.48233776 </i>
    <i name="e_0_energy">    -48.48233776 </i>
   </energy>
  </scstep>
  <scstep>
   <time name="dav">   33.11   33.34</time>
   <time name="total">   86.06   86.48</time>
   <energy>
    <i name="e_fr_energy">    -48.71763684 </i>
    <i name="e_wo_entrp">    -48.71763684 </i>
    <i name="e_0_energy">    -48.71763684 </i>
   </energy>
  </scstep>
  <scstep>
   <time name="dav">   31.30   31.38</time>
   <time name="total">   84.18   84.44</time>
   <energy>
    <i name="e_fr_energy">    -48.98252929 </i>
    <i name="e_wo_entrp">    -48.98252929 </i>
    <i name="e_0_energy">    -48.98252929 </i>
   </energy>
  </scstep>
  <scstep>
   <time name="dav">   30.48   30.73</time>
   <time name="total">   83.35   83.90</time>
   <energy>
    <i name="e_fr_energy">    -49.19900627 </i>
    <i name="e_wo_entrp">    -49.19900627 </i>
    <i name="e_0_energy">    -49.19900627 </i>
   </energy>
  </scstep>
  <scstep>
   <time name="dav">   27.76   27.91</time>
   <time name="total">   80.51   80.90</time>
   <energy>
    <i name="e_fr_energy">    -49.21774024 </i>
    <i name="e_wo_entrp">    -49.21774024 </i>
    <i name="e_0_energy">    -49.21774024 </i>
   </energy>
  </scstep>
  <scstep>
   <time name="dav">   30.45   30.48</time>
   <time name="total">   83.48   83.82</time>
   <energy>
    <i name="e_fr_energy">    -49.22199662 </i>
    <i name="e_wo_entrp">    -49.22199662 </i>
    <i name="e_0_energy">    -49.22199662 </i>
   </energy>
  </scstep>
  <scstep>
   <time name="dav">   31.94   32.09</time>
   <time name="total">   84.90   85.28</time>
   <energy>
    <i name="e_fr_energy">    -49.22277579 </i>
    <i name="e_wo_entrp">    -49.22277579 </i>
    <i name="e_0_energy">    -49.22277579 </i>
   </energy>
  </scstep>
  <scstep>
   <time name="dav">   24.18   24.21</time>
   <time name="total">   77.34   77.39</time>
   <energy>
    <i name="e_fr_energy">    -49.22297764 </i>
    <i name="e_wo_entrp">    -49.22297764 </i>
    <i name="e_0_energy">    -49.22297764 </i>
   </energy>
  </scstep>
  <scstep>
   <time name="dav">   24.55   25.06</time>
   <time name="total">   77.78   78.47</time>
   <energy>
    <i name="e_fr_energy">    -49.22345739 </i>
    <i name="e_wo_entrp">    -49.22345739 </i>
    <i name="e_0_energy">    -49.22345739 </i>
   </energy>
  </scstep>
  <scstep>
   <time name="dav">   21.16   21.22</time>
   <time name="total">   73.88   74.53</time>
   <energy>
    <i name="e_fr_energy">    -49.22359629 </i>
    <i name="e_wo_entrp">    -49.22359629 </i>
    <i name="e_0_energy">    -49.22359629 </i>
   </energy>
  </scstep>
  <scstep>
   <time name="dav">   18.78   18.93</time>
   <time name="total">   71.65   72.25</time>
   <energy>
    <i name="e_fr_energy">    -49.22370225 </i>
    <i name="e_wo_entrp">    -49.22370225 </i>
    <i name="e_0_energy">    -49.22370225 </i>
   </energy>
  </scstep>
  <scstep>
   <time name="dav">   21.04   21.14</time>
   <time name="total">   72.49   72.71</time>
   <energy>
    <i name="alphaZ">     17.65701165 </i>
    <i name="ewald">   5985.89955237 </i>
    <i name="hartreedc">  -8125.63413165 </i>
    <i name="XCdc">     11.02550284 </i>
    <i name="pawpsdc">   1103.47065915 </i>
    <i name="pawaedc">  -1003.34728731 </i>
    <i name="eentropy">      0.00000000 </i>
    <i name="bandstr">   -468.38990132 </i>
    <i name="atom">   2430.09487864 </i>
    <i name="e_fr_energy">    -49.22371564 </i>
    <i name="e_wo_entrp">    -49.22371564 </i>
    <i name="e_0_energy">    -49.22371564 </i>
   </energy>
  </scstep>
  <structure>
   <crystal>
    <varray name="basis" >
     <v>       6.90777700      -0.00000000       0.00000000 </v>
     <v>       3.45388800       5.98231000       0.00000000 </v>
     <v>       0.00000000       0.00000000      23.44458800 </v>
    </varray>
    <i name="volume">    968.83501932 </i>
    <varray name="rec_basis" >
     <v>       0.14476437      -0.08357974       0.00000000 </v>
     <v>       0.00000000       0.16715951      -0.00000000 </v>
     <v>      -0.00000000       0.00000000       0.04265377 </v>
    </varray>
   </crystal>
   <varray name="positions" >
    <v>       0.33333300       0.33333300       0.49992500 </v>
    <v>       0.66666700       0.66666700       0.50007500 </v>
    <v>       0.00000000       0.00000000       0.44821600 </v>
    <v>       0.00000000       0.00000000       0.55178400 </v>
    <v>       0.62635700       0.00042000       0.57375200 </v>
    <v>       0.00042000       0.37322400       0.57375200 </v>
    <v>       0.37322400       0.62635700       0.57375200 </v>
    <v>       0.37364300       0.99958000       0.42624800 </v>
    <v>       0.99958000       0.62677600       0.42624800 </v>
    <v>       0.62677600       0.37364300       0.42624800 </v>
   </varray>
  </structure>
  <varray name="forces" >
   <v>      -0.00000000      -0.00000000       0.00885787 </v>
   <v>      -0.00000000       0.00000000      -0.00885787 </v>
   <v>      -0.00000000       0.00000000       0.01914288 </v>
   <v>      -0.00000000      -0.00000000      -0.01914288 </v>
   <v>       1.40502381      -0.00515939      -1.66763490 </v>
   <v>      -0.70697997      -1.21420654      -1.66763490 </v>
   <v>      -0.69804384       1.21936594      -1.66763490 </v>
   <v>      -1.40502381       0.00515939       1.66763490 </v>
   <v>       0.70697997       1.21420654       1.66763490 </v>
   <v>       0.69804384      -1.21936594       1.66763490 </v>
  </varray>
  <varray name="stress" >
   <v>     -50.74761289       0.00000371      -0.00000000 </v>
   <v>       0.00000478     -50.74760669       0.00000000 </v>
   <v>       0.00000000       0.00000000     -28.87423076 </v>
  </varray>
  <energy>
   <i name="e_fr_energy">    -49.22371564 </i>
   <i name="e_wo_entrp">    -49.22371564 </i>
   <i name="e_0_energy">      0.00000000 </i>
  </energy>
  <time name="totalsc"> 1632.50 1643.99</time>
 </calculation>
 <calculation>
  <scstep>
   <time name="dav">   30.12   30.17</time>
   <time name="total">   84.38   84.54</time>
   <energy>
    <i name="alphaZ">     26.56416026 </i>
    <i name="ewald">   8013.90143753 </i>
    <i name="hartreedc"> -10409.60063151 </i>
    <i name="XCdc">     29.65940390 </i>
    <i name="pawpsdc">   1103.47579059 </i>
    <i name="pawaedc">  -1003.35244970 </i>
    <i name="eentropy">      0.00000000 </i>
    <i name="bandstr">   -275.34282338 </i>
    <i name="atom">   2430.09487864 </i>
    <i name="e_fr_energy">    -84.60023368 </i>
    <i name="e_wo_entrp">    -84.60023368 </i>
    <i name="e_0_energy">    -84.60023368 </i>
   </energy>
  </scstep>
  <scstep>
   <time name="dav">   32.74   32.95</time>
   <time name="total">   86.74   87.12</time>
   <energy>
    <i name="e_fr_energy">    -64.15108645 </i>
    <i name="e_wo_entrp">    -64.15108645 </i>
    <i name="e_0_energy">    -64.15108645 </i>
   </energy>
  </scstep>
  <scstep>
   <time name="dav">   33.80   33.94</time>
   <time name="total">   88.06   88.50</time>
   <energy>
    <i name="e_fr_energy">    -65.95173237 </i>
    <i name="e_wo_entrp">    -65.95173237 </i>
    <i name="e_0_energy">    -65.95173237 </i>
   </energy>
  </scstep>
  <scstep>
   <time name="dav">   33.04   33.16</time>
   <time name="total">   87.22   87.43</time>
   <energy>
    <i name="e_fr_energy">    -56.06289435 </i>
    <i name="e_wo_entrp">    -56.06289435 </i>
    <i name="e_0_energy">    -56.06289435 </i>
   </energy>
  </scstep>
  <scstep>
   <time name="dav">   33.56   33.73</time>
   <time name="total">   87.74   88.05</time>
   <energy>
    <i name="e_fr_energy">    -56.79041415 </i>
    <i name="e_wo_entrp">    -56.79041415 </i>
    <i name="e_0_energy">    -56.79041415 </i>
   </energy>
  </scstep>
  <scstep>
   <time name="dav">   33.52   33.64</time>
   <time name="total">   88.00   88.15</time>
   <energy>
    <i name="e_fr_energy">    -56.81280416 </i>
    <i name="e_wo_entrp">    -56.81280416 </i>
    <i name="e_0_energy">    -56.81280416 </i>
   </energy>
  </scstep>
  <scstep>
   <time name="dav">   28.59   28.77</time>
   <time name="total">   82.69   83.09</time>
   <energy>
    <i name="e_fr_energy">    -56.80256081 </i>
    <i name="e_wo_entrp">    -56.80256081 </i>
    <i name="e_0_energy">    -56.80256081 </i>
   </energy>
  </scstep>
  <scstep>
   <time name="dav">   30.44   30.61</time>
   <time name="total">   84.54   84.90</time>
   <energy>
    <i name="e_fr_energy">    -56.80071933 </i>
    <i name="e_wo_entrp">    -56.80071933 </i>
    <i name="e_0_energy">    -56.80071933 </i>
   </energy>
  </scstep>
  <scstep>
   <time name="dav">   31.19   31.24</time>
   <time name="total">   85.59   85.74</time>
   <energy>
    <i name="e_fr_energy">    -56.79841731 </i>
    <i name="e_wo_entrp">    -56.79841731 </i>
    <i name="e_0_energy">    -56.79841731 </i>
   </energy>
  </scstep>
  <scstep>
   <time name="dav">   25.60   25.73</time>
   <time name="total">   80.04   80.21</time>
   <energy>
    <i name="e_fr_energy">    -56.80000659 </i>
    <i name="e_wo_entrp">    -56.80000659 </i>
    <i name="e_0_energy">    -56.80000659 </i>
   </energy>
  </scstep>
  <scstep>
   <time name="dav">   25.81   26.09</time>
   <time name="total">   79.92   80.31</time>
   <energy>
    <i name="e_fr_energy">    -56.80002198 </i>
    <i name="e_wo_entrp">    -56.80002198 </i>
    <i name="e_0_energy">    -56.80002198 </i>
   </energy>
  </scstep>
  <scstep>
   <time name="dav">   25.18   25.34</time>
   <time name="total">   79.34   79.66</time>
   <energy>
    <i name="e_fr_energy">    -56.79991620 </i>
    <i name="e_wo_entrp">    -56.79991620 </i>
    <i name="e_0_energy">    -56.79991620 </i>
   </energy>
  </scstep>
  <scstep>
   <time name="dav">   25.58   25.73</time>
   <time name="total">   79.94   80.19</time>
   <energy>
    <i name="e_fr_energy">    -56.79698842 </i>
    <i name="e_wo_entrp">    -56.79698842 </i>
    <i name="e_0_energy">    -56.79698842 </i>
   </energy>
  </scstep>
  <scstep>
   <time name="dav">   25.72   25.91</time>
   <time name="total">   80.02   80.38</time>
   <energy>
    <i name="e_fr_energy">    -56.79548574 </i>
    <i name="e_wo_entrp">    -56.79548574 </i>
    <i name="e_0_energy">    -56.79548574 </i>
   </energy>
  </scstep>
  <scstep>
   <time name="dav">   21.86   22.18</time>
   <time name="total">   75.90   76.51</time>
   <energy>
    <i name="e_fr_energy">    -56.79402976 </i>
    <i name="e_wo_entrp">    -56.79402976 </i>
    <i name="e_0_energy">    -56.79402976 </i>
   </energy>
  </scstep>
  <scstep>
   <time name="dav">   21.37   21.55</time>
   <time name="total">   75.44   75.97</time>
   <energy>
    <i name="e_fr_energy">    -56.79265344 </i>
    <i name="e_wo_entrp">    -56.79265344 </i>
    <i name="e_0_energy">    -56.79265344 </i>
   </energy>
  </scstep>
  <scstep>
   <time name="dav">   22.38   22.55</time>
   <time name="total">   76.74   77.02</time>
   <energy>
    <i name="e_fr_energy">    -56.79111489 </i>
    <i name="e_wo_entrp">    -56.79111489 </i>
    <i name="e_0_energy">    -56.79111489 </i>
   </energy>
  </scstep>
  <scstep>
   <time name="dav">   24.09   24.15</time>
   <time name="total">   78.62   78.88</time>
   <energy>
    <i name="e_fr_energy">    -56.79077567 </i>
    <i name="e_wo_entrp">    -56.79077567 </i>
    <i name="e_0_energy">    -56.79077567 </i>
   </energy>
  </scstep>
  <scstep>
   <time name="dav">   21.17   21.52</time>
   <time name="total">   73.70   74.17</time>
   <energy>
    <i name="alphaZ">     26.56416026 </i>
    <i name="ewald">   8013.90143753 </i>
    <i name="hartreedc"> -10196.54181056 </i>
    <i name="XCdc">     18.67103474 </i>
    <i name="pawpsdc">   1245.92885620 </i>
    <i name="pawaedc">  -1147.91356481 </i>
    <i name="eentropy">      0.00000000 </i>
    <i name="bandstr">   -447.49575570 </i>
    <i name="atom">   2430.09487864 </i>
    <i name="e_fr_energy">    -56.79076371 </i>
    <i name="e_wo_entrp">    -56.79076371 </i>
    <i name="e_0_energy">    -56.79076371 </i>
   </energy>
  </scstep>
  <structure>
   <crystal>
    <varray name="basis" >
     <v>       5.88513326       0.00000007      -0.00000000 </v>
     <v>       2.94256629       5.09667474      -0.00000000 </v>
     <v>       0.00000000       0.00000000      21.46978642 </v>
    </varray>
    <i name="volume">    643.97786543 </i>
    <varray name="rec_basis" >
     <v>       0.16991969      -0.09810317       0.00000000 </v>
     <v>      -0.00000000       0.19620636      -0.00000000 </v>
     <v>       0.00000000      -0.00000000       0.04657708 </v>
    </varray>
   </crystal>
   <varray name="positions" >
    <v>       0.33333300       0.33333300       0.49992500 </v>
    <v>       0.66666700       0.66666700       0.50007500 </v>
    <v>      -0.00000000       0.00000000       0.44825539 </v>
    <v>      -0.00000000      -0.00000000       0.55174461 </v>
    <v>       0.63619023       0.00037839       0.57032046 </v>
    <v>       0.00037839       0.36343237       0.57032046 </v>
    <v>       0.36343237       0.63619023       0.57032046 </v>
    <v>       0.36380977       0.99962161       0.42967954 </v>
    <v>       0.99962161       0.63656763       0.42967954 </v>
    <v>       0.63656763       0.36380977       0.42967954 </v>
   </varray>
  </structure>
  <varray name="forces" >
   <v>       0.00000000      -0.00000000      -0.00181057 </v>
   <v>       0.00000000      -0.00000000       0.00181057 </v>
   <v>       0.00000000      -0.00000000       0.10840163 </v>
   <v>       0.00000000      -0.00000000      -0.10840163 </v>
   <v>       0.39265810      -0.01059573       0.35766346 </v>
   <v>      -0.20550521      -0.33475401       0.35766346 </v>
   <v>      -0.18715289       0.34534974       0.35766346 </v>
   <v>      -0.39265810       0.01059573      -0.35766346 </v>
   <v>       0.20550521       0.33475401      -0.35766346 </v>
   <v>       0.18715289      -0.34534974      -0.35766346 </v>
  </varray>
  <varray name="stress" >
   <v>       5.93275836      -0.00000057      -0.00000000 </v>
   <v>      -0.00000007       5.93275788       0.00000000 </v>
   <v>      -0.00000000       0.00000000       7.38181681 </v>
  </varray>
  <energy>
   <i name="e_fr_energy">    -56.79076371 </i>
   <i name="e_wo_entrp">    -56.79076371 </i>
   <i name="e_0_energy">      0.00000000 </i>
  </energy>
  <time name="totalsc"> 1690.29 1697.24</time>
 </calculation>
 <calculation>
  <scstep>
   <time name="dav">   30.56   30.96</time>
   <time name="total">   84.62   85.42</time>
   <energy>
    <i name="alphaZ">     26.11559973 </i>
    <i name="ewald">   7915.53521624 </i>
    <i name="hartreedc"> -10088.58415546 </i>
    <i name="XCdc">     17.90563837 </i>
    <i name="pawpsdc">   1245.93228103 </i>
    <i name="pawaedc">  -1147.91693460 </i>
    <i name="eentropy">      0.00000000 </i>
    <i name="bandstr">   -455.93821952 </i>
    <i name="atom">   2430.09487864 </i>
    <i name="e_fr_energy">    -56.85569558 </i>
    <i name="e_wo_entrp">    -56.85569558 </i>
    <i name="e_0_energy">    -56.85569558 </i>
   </energy>
  </scstep>
  <scstep>
   <time name="dav">   28.51   28.87</time>
   <time name="total">   82.04   83.00</time>
   <energy>
    <i name="e_fr_energy">    -56.82123108 </i>
    <i name="e_wo_entrp">    -56.82123108 </i>
    <i name="e_0_energy">    -56.82123108 </i>
   </energy>
  </scstep>
  <scstep>
   <time name="dav">   30.12   30.49</time>
   <time name="total">   83.91   84.68</time>
   <energy>
    <i name="e_fr_energy">    -56.81614963 </i>
    <i name="e_wo_entrp">    -56.81614963 </i>
    <i name="e_0_energy">    -56.81614963 </i>
   </energy>
  </scstep>
  <scstep>
   <time name="dav">   32.30   32.59</time>
   <time name="total">   86.20   86.79</time>
   <energy>
    <i name="e_fr_energy">    -56.81227470 </i>
    <i name="e_wo_entrp">    -56.81227470 </i>
    <i name="e_0_energy">    -56.81227470 </i>
   </energy>
  </scstep>
  <scstep>
   <time name="dav">   29.05   29.34</time>
   <time name="total">   82.86   83.60</time>
   <energy>
    <i name="e_fr_energy">    -56.81188973 </i>
    <i name="e_wo_entrp">    -56.81188973 </i>
    <i name="e_0_energy">    -56.81188973 </i>
   </energy>
  </scstep>
  <scstep>
   <time name="dav">   20.10   20.34</time>
   <time name="total">   72.02   72.61</time>
   <energy>
    <i name="alphaZ">     26.11559973 </i>
    <i name="ewald">   7915.53521624 </i>
    <i name="hartreedc"> -10095.03629716 </i>
    <i name="XCdc">     18.25751916 </i>
    <i name="pawpsdc">   1237.50181020 </i>
    <i name="pawaedc">  -1139.35309654 </i>
    <i name="eentropy">      0.00000000 </i>
    <i name="bandstr">   -449.92748599 </i>
    <i name="atom">   2430.09487864 </i>
    <i name="e_fr_energy">    -56.81185572 </i>
    <i name="e_wo_entrp">    -56.81185572 </i>
    <i name="e_0_energy">    -56.81185572 </i>
   </energy>
  </scstep>
  <structure>
   <crystal>
    <varray name="basis" >
     <v>       5.92487865       0.00000007      -0.00000000 </v>
     <v>       2.96243898       5.13109525      -0.00000000 </v>
     <v>       0.00000000       0.00000000      21.54653775 </v>
    </varray>
    <i name="volume">    655.03880429 </i>
    <varray name="rec_basis" >
     <v>       0.16877983      -0.09744507       0.00000000 </v>
     <v>      -0.00000000       0.19489017      -0.00000000 </v>
     <v>       0.00000000      -0.00000000       0.04641117 </v>
    </varray>
   </crystal>
   <varray name="positions" >
    <v>       0.33333300       0.33333300       0.49992500 </v>
    <v>       0.66666700       0.66666700       0.50007500 </v>
    <v>      -0.00000000       0.00000000       0.44825372 </v>
    <v>      -0.00000000      -0.00000000       0.55174628 </v>
    <v>       0.63574165       0.00038029       0.57046609 </v>
    <v>       0.00038029       0.36387906       0.57046609 </v>
    <v>       0.36387906       0.63574165       0.57046609 </v>
    <v>       0.36425835       0.99961971       0.42953391 </v>
    <v>       0.99961971       0.63612094       0.42953391 </v>
    <v>       0.63612094       0.36425835       0.42953391 </v>
   </varray>
  </structure>
  <varray name="forces" >
   <v>      -0.00000000      -0.00000000      -0.00104802 </v>
   <v>       0.00000000       0.00000000       0.00104802 </v>
   <v>      -0.00000000       0.00000000       0.10598519 </v>
   <v>       0.00000000      -0.00000000      -0.10598519 </v>
   <v>       0.51211297      -0.01037134       0.19755901 </v>
   <v>      -0.26503830      -0.43831715       0.19755901 </v>
   <v>      -0.24707466       0.44868849       0.19755901 </v>
   <v>      -0.51211297       0.01037134      -0.19755901 </v>
   <v>       0.26503830       0.43831715      -0.19755901 </v>
   <v>       0.24707466      -0.44868849      -0.19755901 </v>
  </varray>
  <varray name="stress" >
   <v>      -0.38459018      -0.00000030       0.00000000 </v>
   <v>       0.00000035      -0.38459015      -0.00000000 </v>
   <v>       0.00000000      -0.00000000       4.06899679 </v>
  </varray>
  <energy>
   <i name="e_fr_energy">    -56.81185572 </i>
   <i name="e_wo_entrp">    -56.81185572 </i>
   <i name="e_0_energy">      0.00000000 </i>
  </energy>
  <time name="totalsc">  626.96  632.15</time>
 </calculation>
 <calculation>
  <scstep>
   <time name="dav">   24.73   24.98</time>
   <time name="total">   78.75   79.18</time>
   <energy>
    <i name="alphaZ">     26.01595265 </i>
    <i name="ewald">   8010.25686050 </i>
    <i name="hartreedc"> -10179.22222224 </i>
    <i name="XCdc">     18.13600183 </i>
    <i name="pawpsdc">   1236.81605872 </i>
    <i name="pawaedc">  -1138.64793834 </i>
    <i name="eentropy">      0.00000000 </i>
    <i name="bandstr">   -460.30978857 </i>
    <i name="atom">   2430.09487864 </i>
    <i name="e_fr_energy">    -56.86019682 </i>
    <i name="e_wo_entrp">    -56.86019682 </i>
    <i name="e_0_energy">    -56.86019682 </i>
   </energy>
  </scstep>
  <scstep>
   <time name="dav">   30.76   30.87</time>
   <time name="total">   84.81   85.45</time>
   <energy>
    <i name="e_fr_energy">    -56.88911478 </i>
    <i name="e_wo_entrp">    -56.88911478 </i>
    <i name="e_0_energy">    -56.88911478 </i>
   </energy>
  </scstep>
  <scstep>
   <time name="dav">   29.25   29.58</time>
   <time name="total">   83.46   84.03</time>
   <energy>
    <i name="e_fr_energy">    -56.88270361 </i>
    <i name="e_wo_entrp">    -56.88270361 </i>
    <i name="e_0_energy">    -56.88270361 </i>
   </energy>
  </scstep>
  <scstep>
   <time name="dav">   32.20   32.33</time>
   <time name="total">   86.38   86.83</time>
   <energy>
    <i name="e_fr_energy">    -56.87950389 </i>
    <i name="e_wo_entrp">    -56.87950389 </i>
    <i name="e_0_energy">    -56.87950389 </i>
   </energy>
  </scstep>
  <scstep>
   <time name="dav">   29.76   29.86</time>
   <time name="total">   83.55   84.05</time>
   <energy>
    <i name="e_fr_energy">    -56.87801898 </i>
    <i name="e_wo_entrp">    -56.87801898 </i>
    <i name="e_0_energy">    -56.87801898 </i>
   </energy>
  </scstep>
  <scstep>
   <time name="dav">   26.09   26.61</time>
   <time name="total">   79.58   80.90</time>
   <energy>
    <i name="e_fr_energy">    -56.87777308 </i>
    <i name="e_wo_entrp">    -56.87777308 </i>
    <i name="e_0_energy">    -56.87777308 </i>
   </energy>
  </scstep>
  <scstep>
   <time name="dav">   20.01   20.10</time>
   <time name="total">   73.71   74.36</time>
   <energy>
    <i name="e_fr_energy">    -56.87753619 </i>
    <i name="e_wo_entrp">    -56.87753619 </i>
    <i name="e_0_energy">    -56.87753619 </i>
   </energy>
  </scstep>
  <scstep>
   <time name="dav">   22.57   25.80</time>
   <time name="total">   77.04   80.55</time>
   <energy>
    <i name="alphaZ">     26.01595265 </i>
    <i name="ewald">   8010.25686050 </i>
    <i name="hartreedc"> -10185.87570754 </i>
    <i name="XCdc">     18.36708574 </i>
    <i name="pawpsdc">   1232.40465867 </i>
    <i name="pawaedc">  -1134.18563324 </i>
    <i name="eentropy">      0.00000000 </i>
    <i name="bandstr">   -453.95559577 </i>
    <i name="atom">   2430.09487864 </i>
    <i name="e_fr_energy">    -56.87750035 </i>
    <i name="e_wo_entrp">    -56.87750035 </i>
    <i name="e_0_energy">    -56.87750035 </i>
   </energy>
  </scstep>
  <structure>
   <crystal>
    <varray name="basis" >
     <v>       5.91441204       0.00000007      -0.00000000 </v>
     <v>       2.95720568       5.12203090      -0.00000000 </v>
     <v>       0.00000000      -0.00000000      21.70568665 </v>
    </varray>
    <i name="volume">    657.54775338 </i>
    <varray name="rec_basis" >
     <v>       0.16907852      -0.09761752      -0.00000000 </v>
     <v>      -0.00000000       0.19523506       0.00000000 </v>
     <v>       0.00000000       0.00000000       0.04607088 </v>
    </varray>
   </crystal>
   <varray name="positions" >
    <v>       0.33333300       0.33333300       0.49992500 </v>
    <v>       0.66666700       0.66666700       0.50007500 </v>
    <v>      -0.00000000       0.00000000       0.44848947 </v>
    <v>      -0.00000000      -0.00000000       0.55151053 </v>
    <v>       0.64000596       0.00028321       0.57087942 </v>
    <v>       0.00028321       0.35971184       0.57087942 </v>
    <v>       0.35971184       0.64000596       0.57087942 </v>
    <v>       0.35999404       0.99971679       0.42912058 </v>
    <v>       0.99971679       0.64028816       0.42912058 </v>
    <v>       0.64028816       0.35999404       0.42912058 </v>
   </varray>
  </structure>
  <varray name="forces" >
   <v>      -0.00000000       0.00000000       0.00400800 </v>
   <v>      -0.00000000       0.00000000      -0.00400800 </v>
   <v>      -0.00000000       0.00000000       0.33426990 </v>
   <v>      -0.00000000       0.00000000      -0.33426990 </v>
   <v>       0.14592892      -0.00575826       0.08985854 </v>
   <v>      -0.07795125      -0.12349901       0.08985854 </v>
   <v>      -0.06797767       0.12925727       0.08985854 </v>
   <v>      -0.14592892       0.00575826      -0.08985854 </v>
   <v>       0.07795125       0.12349901      -0.08985854 </v>
   <v>       0.06797767      -0.12925727      -0.08985854 </v>
  </varray>
  <varray name="stress" >
   <v>       1.78471639      -0.00000067       0.00000000 </v>
   <v>       0.00000047       1.78471624      -0.00000000 </v>
   <v>       0.00000000      -0.00000000       0.81366392 </v>
  </varray>
  <energy>
   <i name="e_fr_energy">    -56.87750035 </i>
   <i name="e_wo_entrp">    -56.87750035 </i>
   <i name="e_0_energy">      0.00000000 </i>
  </energy>
  <time name="totalsc">  782.19  791.66</time>
 </calculation>
 <calculation>
  <scstep>
   <time name="dav">   23.42   23.56</time>
   <time name="total">   77.50   77.90</time>
   <energy>
    <i name="alphaZ">     25.97465269 </i>
    <i name="ewald">   8050.35380085 </i>
    <i name="hartreedc"> -10222.02018982 </i>
    <i name="XCdc">     18.32362158 </i>
    <i name="pawpsdc">   1232.28523961 </i>
    <i name="pawaedc">  -1134.06506634 </i>
    <i name="eentropy">      0.00000000 </i>
    <i name="bandstr">   -457.82756853 </i>
    <i name="atom">   2430.09487864 </i>
    <i name="e_fr_energy">    -56.88063131 </i>
    <i name="e_wo_entrp">    -56.88063131 </i>
    <i name="e_0_energy">    -56.88063131 </i>
   </energy>
  </scstep>
  <scstep>
   <time name="dav">   31.95   32.12</time>
   <time name="total">   86.08   86.43</time>
   <energy>
    <i name="e_fr_energy">    -56.88549070 </i>
    <i name="e_wo_entrp">    -56.88549070 </i>
    <i name="e_0_energy">    -56.88549070 </i>
   </energy>
  </scstep>
  <scstep>
   <time name="dav">   28.85   29.19</time>
   <time name="total">   82.87   83.41</time>
   <energy>
    <i name="e_fr_energy">    -56.88425484 </i>
    <i name="e_wo_entrp">    -56.88425484 </i>
    <i name="e_0_energy">    -56.88425484 </i>
   </energy>
  </scstep>
  <scstep>
   <time name="dav">   31.97   32.19</time>
   <time name="total">   85.82   86.58</time>
   <energy>
    <i name="e_fr_energy">    -56.88365314 </i>
    <i name="e_wo_entrp">    -56.88365314 </i>
    <i name="e_0_energy">    -56.88365314 </i>
   </energy>
  </scstep>
  <scstep>
   <time name="dav">   30.64   30.87</time>
   <time name="total">   84.51   85.10</time>
   <energy>
    <i name="e_fr_energy">    -56.88331431 </i>
    <i name="e_wo_entrp">    -56.88331431 </i>
    <i name="e_0_energy">    -56.88331431 </i>
   </energy>
  </scstep>
  <scstep>
   <time name="dav">   18.90   19.00</time>
   <time name="total">   72.97   73.27</time>
   <energy>
    <i name="e_fr_energy">    -56.88319897 </i>
    <i name="e_wo_entrp">    -56.88319897 </i>
    <i name="e_0_energy">    -56.88319897 </i>
   </energy>
  </scstep>
  <scstep>
   <time name="dav">   19.68   19.82</time>
   <time name="total">   73.71   74.03</time>
   <energy>
    <i name="e_fr_energy">    -56.88293087 </i>
    <i name="e_wo_entrp">    -56.88293087 </i>
    <i name="e_0_energy">    -56.88293087 </i>
   </energy>
  </scstep>
  <scstep>
   <time name="dav">   21.17   21.20</time>
   <time name="total">   75.16   75.56</time>
   <energy>
    <i name="e_fr_energy">    -56.88270763 </i>
    <i name="e_wo_entrp">    -56.88270763 </i>
    <i name="e_0_energy">    -56.88270763 </i>
   </energy>
  </scstep>
  <scstep>
   <time name="dav">   25.50   25.57</time>
   <time name="total">   77.64   77.78</time>
   <energy>
    <i name="alphaZ">     25.97465269 </i>
    <i name="ewald">   8050.35380085 </i>
    <i name="hartreedc"> -10226.79032249 </i>
    <i name="XCdc">     18.43328408 </i>
    <i name="pawpsdc">   1230.68565799 </i>
    <i name="pawaedc">  -1132.45271629 </i>
    <i name="eentropy">      0.00000000 </i>
    <i name="bandstr">   -453.18189893 </i>
    <i name="atom">   2430.09487864 </i>
    <i name="e_fr_energy">    -56.88266346 </i>
    <i name="e_wo_entrp">    -56.88266346 </i>
    <i name="e_0_energy">    -56.88266346 </i>
   </energy>
  </scstep>
  <structure>
   <crystal>
    <varray name="basis" >
     <v>       5.91001310       0.00000007       0.00000000 </v>
     <v>       2.95500621       5.11822131      -0.00000000 </v>
     <v>       0.00000000      -0.00000000      21.77257428 </v>
    </varray>
    <i name="volume">    658.59326092 </i>
    <varray name="rec_basis" >
     <v>       0.16920436      -0.09769018      -0.00000000 </v>
     <v>      -0.00000000       0.19538038       0.00000000 </v>
     <v>      -0.00000000       0.00000000       0.04592934 </v>
    </varray>
   </crystal>
   <varray name="positions" >
    <v>       0.33333300       0.33333300       0.49992500 </v>
    <v>       0.66666700       0.66666700       0.50007500 </v>
    <v>      -0.00000000       0.00000000       0.44858782 </v>
    <v>      -0.00000000      -0.00000000       0.55141218 </v>
    <v>       0.64180134       0.00024233       0.57105186 </v>
    <v>       0.00024233       0.35795733       0.57105186 </v>
    <v>       0.35795733       0.64180134       0.57105186 </v>
    <v>       0.35819866       0.99975767       0.42894814 </v>
    <v>       0.99975767       0.64204267       0.42894814 </v>
    <v>       0.64204267       0.35819866       0.42894814 </v>
   </varray>
  </structure>
  <varray name="forces" >
   <v>      -0.00000000      -0.00000000       0.00536982 </v>
   <v>      -0.00000000       0.00000000      -0.00536982 </v>
   <v>       0.00000000      -0.00000000       0.43376804 </v>
   <v>      -0.00000000       0.00000000      -0.43376804 </v>
   <v>      -0.00930242      -0.00474841       0.05553914 </v>
   <v>       0.00053896       0.01043033       0.05553914 </v>
   <v>       0.00876345      -0.00568192       0.05553914 </v>
   <v>       0.00930242       0.00474841      -0.05553914 </v>
   <v>      -0.00053896      -0.01043033      -0.05553914 </v>
   <v>      -0.00876345       0.00568192      -0.05553914 </v>
  </varray>
  <varray name="stress" >
   <v>       2.82417388      -0.00000184      -0.00000000 </v>
   <v>       0.00000153       2.82417365       0.00000000 </v>
   <v>       0.00000000       0.00000000      -0.92066945 </v>
  </varray>
  <energy>
   <i name="e_fr_energy">    -56.88266346 </i>
   <i name="e_wo_entrp">    -56.88266346 </i>
   <i name="e_0_energy">      0.00000000 </i>
  </energy>
  <time name="totalsc">  850.89  856.04</time>
 </calculation>
 <calculation>
  <scstep>
   <time name="dav">   24.94   25.31</time>
   <time name="total">   78.50   79.54</time>
   <energy>
    <i name="alphaZ">     25.68179807 </i>
    <i name="ewald">   7945.29984815 </i>
    <i name="hartreedc"> -10117.92909214 </i>
    <i name="XCdc">     17.96563020 </i>
    <i name="pawpsdc">   1230.68166509 </i>
    <i name="pawaedc">  -1132.44722143 </i>
    <i name="eentropy">      0.00000000 </i>
    <i name="bandstr">   -456.24497766 </i>
    <i name="atom">   2430.09487864 </i>
    <i name="e_fr_energy">    -56.89747109 </i>
    <i name="e_wo_entrp">    -56.89747109 </i>
    <i name="e_0_energy">    -56.89747109 </i>
   </energy>
  </scstep>
  <scstep>
   <time name="dav">   25.86   26.34</time>
   <time name="total">   79.87   80.73</time>
   <energy>
    <i name="e_fr_energy">    -56.88867091 </i>
    <i name="e_wo_entrp">    -56.88867091 </i>
    <i name="e_0_energy">    -56.88867091 </i>
   </energy>
  </scstep>
  <scstep>
   <time name="dav">   28.96   29.25</time>
   <time name="total">   83.26   83.77</time>
   <energy>
    <i name="e_fr_energy">    -56.88568929 </i>
    <i name="e_wo_entrp">    -56.88568929 </i>
    <i name="e_0_energy">    -56.88568929 </i>
   </energy>
  </scstep>
  <scstep>
   <time name="dav">   29.72   29.93</time>
   <time name="total">   83.91   84.15</time>
   <energy>
    <i name="e_fr_energy">    -56.88482846 </i>
    <i name="e_wo_entrp">    -56.88482846 </i>
    <i name="e_0_energy">    -56.88482846 </i>
   </energy>
  </scstep>
  <scstep>
   <time name="dav">   25.85   25.97</time>
   <time name="total">   78.15   78.32</time>
   <energy>
    <i name="alphaZ">     25.68179807 </i>
    <i name="ewald">   7945.29984815 </i>
    <i name="hartreedc"> -10121.20544521 </i>
    <i name="XCdc">     18.23228282 </i>
    <i name="pawpsdc">   1224.99890687 </i>
    <i name="pawaedc">  -1126.68994141 </i>
    <i name="eentropy">      0.00000000 </i>
    <i name="bandstr">   -453.29710602 </i>
    <i name="atom">   2430.09487864 </i>
    <i name="e_fr_energy">    -56.88477810 </i>
    <i name="e_wo_entrp">    -56.88477810 </i>
    <i name="e_0_energy">    -56.88477810 </i>
   </energy>
  </scstep>
  <structure>
   <crystal>
    <varray name="basis" >
     <v>       5.94213695       0.00000004      -0.00000000 </v>
     <v>       2.97106815       5.14604136      -0.00000000 </v>
     <v>       0.00000000      -0.00000000      21.78340056 </v>
    </varray>
    <i name="volume">    666.10333028 </i>
    <varray name="rec_basis" >
     <v>       0.16828963      -0.09716205      -0.00000000 </v>
     <v>      -0.00000000       0.19432413       0.00000000 </v>
     <v>       0.00000000       0.00000000       0.04590651 </v>
    </varray>
   </crystal>
   <varray name="positions" >
    <v>       0.33333300       0.33333300       0.49992500 </v>
    <v>       0.66666700       0.66666700       0.50007500 </v>
    <v>      -0.00000000       0.00000000       0.44969937 </v>
    <v>      -0.00000000      -0.00000000       0.55030063 </v>
    <v>       0.64316816       0.00016176       0.57132051 </v>
    <v>       0.00016176       0.35667109       0.57132051 </v>
    <v>       0.35667109       0.64316816       0.57132051 </v>
    <v>       0.35683184       0.99983824       0.42867949 </v>
    <v>       0.99983824       0.64332891       0.42867949 </v>
    <v>       0.64332891       0.35683184       0.42867949 </v>
   </varray>
  </structure>
  <varray name="forces" >
   <v>      -0.00000000      -0.00000000       0.00769030 </v>
   <v>      -0.00000000      -0.00000000      -0.00769030 </v>
   <v>      -0.00000000      -0.00000000      -0.44928712 </v>
   <v>       0.00000000      -0.00000000       0.44928712 </v>
   <v>       0.03954855      -0.00174587      -0.09414656 </v>
   <v>      -0.02128624      -0.03337711      -0.09414656 </v>
   <v>      -0.01826231       0.03512298      -0.09414656 </v>
   <v>      -0.03954855       0.00174587       0.09414656 </v>
   <v>       0.02128624       0.03337711       0.09414656 </v>
   <v>       0.01826231      -0.03512298       0.09414656 </v>
  </varray>
  <varray name="stress" >
   <v>      -1.53133661      -0.00000054       0.00000000 </v>
   <v>       0.00000071      -1.53133648       0.00000000 </v>
   <v>       0.00000000      -0.00000000       0.47001104 </v>
  </varray>
  <energy>
   <i name="e_fr_energy">    -56.88477810 </i>
   <i name="e_wo_entrp">    -56.88477810 </i>
   <i name="e_0_energy">      0.00000000 </i>
  </energy>
  <time name="totalsc">  539.34  542.63</time>
 </calculation>
 <calculation>
  <scstep>
   <time name="dav">   25.41   25.58</time>
   <time name="total">   79.64   79.85</time>
   <energy>
    <i name="alphaZ">     25.81648634 </i>
    <i name="ewald">   7993.62288351 </i>
    <i name="hartreedc"> -10171.69138677 </i>
    <i name="XCdc">     18.44948512 </i>
    <i name="pawpsdc">   1224.63277395 </i>
    <i name="pawaedc">  -1126.31780992 </i>
    <i name="eentropy">      0.00000000 </i>
    <i name="bandstr">   -451.50210086 </i>
    <i name="atom">   2430.09487864 </i>
    <i name="e_fr_energy">    -56.89478999 </i>
    <i name="e_wo_entrp">    -56.89478999 </i>
    <i name="e_0_energy">    -56.89478999 </i>
   </energy>
  </scstep>
  <scstep>
   <time name="dav">   25.24   25.28</time>
   <time name="total">   79.52   79.65</time>
   <energy>
    <i name="e_fr_energy">    -56.89294816 </i>
    <i name="e_wo_entrp">    -56.89294816 </i>
    <i name="e_0_energy">    -56.89294816 </i>
   </energy>
  </scstep>
  <scstep>
   <time name="dav">   26.75   26.87</time>
   <time name="total">   81.30   81.44</time>
   <energy>
    <i name="e_fr_energy">    -56.89233343 </i>
    <i name="e_wo_entrp">    -56.89233343 </i>
    <i name="e_0_energy">    -56.89233343 </i>
   </energy>
  </scstep>
  <scstep>
   <time name="dav">   26.34   26.62</time>
   <time name="total">   78.35   79.10</time>
   <energy>
    <i name="alphaZ">     25.81648634 </i>
    <i name="ewald">   7993.62288351 </i>
    <i name="hartreedc"> -10170.25247021 </i>
    <i name="XCdc">     18.32092562 </i>
    <i name="pawpsdc">   1226.13743596 </i>
    <i name="pawaedc">  -1127.80617615 </i>
    <i name="eentropy">      0.00000000 </i>
    <i name="bandstr">   -452.82622043 </i>
    <i name="atom">   2430.09487864 </i>
    <i name="e_fr_energy">    -56.89225673 </i>
    <i name="e_wo_entrp">    -56.89225673 </i>
    <i name="e_0_energy">    -56.89225673 </i>
   </energy>
  </scstep>
  <structure>
   <crystal>
    <varray name="basis" >
     <v>       5.92729668       0.00000005      -0.00000000 </v>
     <v>       2.96364801       5.13318932      -0.00000000 </v>
     <v>       0.00000000      -0.00000000      21.77839914 </v>
    </varray>
    <i name="volume">    662.62817474 </i>
    <varray name="rec_basis" >
     <v>       0.16871098      -0.09740532      -0.00000000 </v>
     <v>      -0.00000000       0.19481066       0.00000000 </v>
     <v>       0.00000000       0.00000000       0.04591706 </v>
    </varray>
   </crystal>
   <varray name="positions" >
    <v>       0.33333300       0.33333300       0.49992500 </v>
    <v>       0.66666700       0.66666700       0.50007500 </v>
    <v>      -0.00000000       0.00000000       0.44918612 </v>
    <v>      -0.00000000      -0.00000000       0.55081388 </v>
    <v>       0.64254014       0.00019878       0.57119646 </v>
    <v>       0.00019878       0.35726208       0.57119646 </v>
    <v>       0.35726208       0.64254014       0.57119646 </v>
    <v>       0.35745986       0.99980122       0.42880354 </v>
    <v>       0.99980122       0.64273792       0.42880354 </v>
    <v>       0.64273792       0.35745986       0.42880354 </v>
   </varray>
  </structure>
  <varray name="forces" >
   <v>       0.00000000       0.00000000       0.00655090 </v>
   <v>       0.00000000       0.00000000      -0.00655090 </v>
   <v>       0.00000000       0.00000000      -0.02334710 </v>
   <v>       0.00000000       0.00000000       0.02334710 </v>
   <v>       0.01068222      -0.00292453      -0.02830252 </v>
   <v>      -0.00787383      -0.00778881      -0.02830252 </v>
   <v>      -0.00280839       0.01071334      -0.02830252 </v>
   <v>      -0.01068222       0.00292453       0.02830252 </v>
   <v>       0.00787383       0.00778881       0.02830252 </v>
   <v>       0.00280839      -0.01071334       0.02830252 </v>
  </varray>
  <varray name="stress" >
   <v>       0.73866361      -0.00000029       0.00000000 </v>
   <v>       0.00000021       0.73866355       0.00000000 </v>
   <v>       0.00000000       0.00000000       0.25601230 </v>
  </varray>
  <energy>
   <i name="e_fr_energy">    -56.89225673 </i>
   <i name="e_wo_entrp">    -56.89225673 </i>
   <i name="e_0_energy">      0.00000000 </i>
  </energy>
  <time name="totalsc">  451.63  453.26</time>
  <eigenvalues>
   <array>
    <dimension dim="1">band</dimension>
    <dimension dim="2">kpoint</dimension>
    <dimension dim="3">spin</dimension>
    <field>eigene</field>
    <field>occ</field>
    <set>
     <set comment="spin 1">
      <set comment="kpoint 1">
       <r>  -17.2571    1.0000 </r>
       <r>  -16.3158    1.0000 </r>
       <r>  -15.1648    1.0000 </r>
       <r>  -15.1647    1.0000 </r>
       <r>  -15.0649    1.0000 </r>
       <r>  -15.0649    1.0000 </r>
       <r>  -11.1024    1.0000 </r>
       <r>   -9.1740    1.0000 </r>
       <r>   -8.1942    1.0000 </r>
       <r>   -8.1941    1.0000 </r>
       <r>   -8.1256    1.0000 </r>
       <r>   -7.7463    1.0000 </r>
       <r>   -7.7463    1.0000 </r>
       <r>   -7.4834    1.0000 </r>
       <r>   -6.2395    1.0000 </r>
       <r>   -5.7974    1.0000 </r>
       <r>   -5.7974    1.0000 </r>
       <r>   -5.6743    1.0000 </r>
       <r>   -5.6743    1.0000 </r>
       <r>   -4.9598    1.0000 </r>
       <r>   -4.7623    1.0000 </r>
       <r>   -4.6905    1.0000 </r>
       <r>   -4.6905    1.0000 </r>
       <r>   -3.9512    1.0000 </r>
       <r>   -3.9512    1.0000 </r>
       <r>   -3.8298    1.0000 </r>
       <r>   -3.8298    1.0000 </r>
       <r>   -3.6036    1.0000 </r>
       <r>   -3.4089    1.0000 </r>
       <r>   -3.4089    1.0000 </r>
       <r>   -3.2100    1.0000 </r>
       <r>   -1.5932    0.0000 </r>
       <r>   -1.5932    0.0000 </r>
       <r>   -1.1888    0.0000 </r>
       <r>   -1.1888    0.0000 </r>
       <r>    0.3039    0.0000 </r>
       <r>    0.6044    0.0000 </r>
       <r>    1.7220    0.0000 </r>
       <r>    1.7220    0.0000 </r>
       <r>    2.0387    0.0000 </r>
       <r>    2.1819    0.0000 </r>
       <r>    2.5640    0.0000 </r>
       <r>    2.8616    0.0000 </r>
       <r>    3.1907    0.0000 </r>
       <r>    3.2405    0.0000 </r>
       <r>    3.2405    0.0000 </r>
       <r>    3.5316    0.0000 </r>
       <r>    4.2472    0.0000 </r>
      </set>
      <set comment="kpoint 2">
       <r>  -17.1115    1.0000 </r>
       <r>  -16.2147    1.0000 </r>
       <r>  -15.3962    1.0000 </r>
       <r>  -15.2332    1.0000 </r>
       <r>  -15.1500    1.0000 </r>
       <r>  -15.1492    1.0000 </r>
       <r>  -10.9997    1.0000 </r>
       <r>   -9.3400    1.0000 </r>
       <r>   -8.1744    1.0000 </r>
       <r>   -8.1370    1.0000 </r>
       <r>   -7.9822    1.0000 </r>
       <r>   -7.6869    1.0000 </r>
       <r>   -7.2272    1.0000 </r>
       <r>   -6.7263    1.0000 </r>
       <r>   -6.2166    1.0000 </r>
       <r>   -6.0305    1.0000 </r>
       <r>   -5.9994    1.0000 </r>
       <r>   -5.7869    1.0000 </r>
       <r>   -5.4289    1.0000 </r>
       <r>   -5.0054    1.0000 </r>
       <r>   -4.9870    1.0000 </r>
       <r>   -4.9850    1.0000 </r>
       <r>   -4.7115    1.0000 </r>
       <r>   -4.3350    1.0000 </r>
       <r>   -4.2164    1.0000 </r>
       <r>   -3.8451    1.0000 </r>
       <r>   -3.7075    1.0000 </r>
       <r>   -3.6547    1.0000 </r>
       <r>   -3.5012    1.0000 </r>
       <r>   -3.3738    1.0000 </r>
       <r>   -3.1552    1.0000 </r>
       <r>   -1.7318    0.0000 </r>
       <r>   -1.5667    0.0000 </r>
       <r>   -1.4156    0.0000 </r>
       <r>   -1.2146    0.0000 </r>
       <r>    0.7286    0.0000 </r>
       <r>    0.9656    0.0000 </r>
       <r>    1.6349    0.0000 </r>
       <r>    1.6514    0.0000 </r>
       <r>    2.2273    0.0000 </r>
       <r>    2.2961    0.0000 </r>
       <r>    2.5295    0.0000 </r>
       <r>    2.7526    0.0000 </r>
       <r>    3.0203    0.0000 </r>
       <r>    3.2303    0.0000 </r>
       <r>    3.3793    0.0000 </r>
       <r>    3.7382    0.0000 </r>
       <r>    3.9865    0.0000 </r>
      </set>
      <set comment="kpoint 3">
       <r>  -16.7360    1.0000 </r>
       <r>  -15.9717    1.0000 </r>
       <r>  -15.9161    1.0000 </r>
       <r>  -15.3930    1.0000 </r>
       <r>  -15.3227    1.0000 </r>
       <r>  -15.2677    1.0000 </r>
       <r>  -10.8260    1.0000 </r>
       <r>   -9.4619    1.0000 </r>
       <r>   -8.0688    1.0000 </r>
       <r>   -7.9276    1.0000 </r>
       <r>   -7.4724    1.0000 </r>
       <r>   -7.0581    1.0000 </r>
       <r>   -6.6035    1.0000 </r>
       <r>   -6.5843    1.0000 </r>
       <r>   -6.2549    1.0000 </r>
       <r>   -6.2273    1.0000 </r>
       <r>   -6.1610    1.0000 </r>
       <r>   -6.0887    1.0000 </r>
       <r>   -5.4541    1.0000 </r>
       <r>   -5.4194    1.0000 </r>
       <r>   -5.1792    1.0000 </r>
       <r>   -5.0147    1.0000 </r>
       <r>   -4.8684    1.0000 </r>
       <r>   -4.4610    1.0000 </r>
       <r>   -4.1610    1.0000 </r>
       <r>   -4.0155    1.0000 </r>
       <r>   -3.8734    1.0000 </r>
       <r>   -3.6910    1.0000 </r>
       <r>   -3.4692    1.0000 </r>
       <r>   -3.3603    1.0000 </r>
       <r>   -3.1821    1.0000 </r>
       <r>   -1.8070    0.0000 </r>
       <r>   -1.7406    0.0000 </r>
       <r>   -1.3191    0.0000 </r>
       <r>   -1.1877    0.0000 </r>
       <r>    0.5464    0.0000 </r>
       <r>    0.9226    0.0000 </r>
       <r>    1.4446    0.0000 </r>
       <r>    1.8300    0.0000 </r>
       <r>    2.2460    0.0000 </r>
       <r>    2.2819    0.0000 </r>
       <r>    2.7250    0.0000 </r>
       <r>    2.8276    0.0000 </r>
       <r>    3.1249    0.0000 </r>
       <r>    3.1611    0.0000 </r>
       <r>    3.4038    0.0000 </r>
       <r>    3.5857    0.0000 </r>
       <r>    3.7138    0.0000 </r>
      </set>
      <set comment="kpoint 4">
       <r>  -16.8450    1.0000 </r>
       <r>  -16.0380    1.0000 </r>
       <r>  -15.6709    1.0000 </r>
       <r>  -15.4819    1.0000 </r>
       <r>  -15.2864    1.0000 </r>
       <r>  -15.2287    1.0000 </r>
       <r>  -10.8115    1.0000 </r>
       <r>   -9.4207    1.0000 </r>
       <r>   -8.2999    1.0000 </r>
       <r>   -7.8090    1.0000 </r>
       <r>   -7.7378    1.0000 </r>
       <r>   -7.2503    1.0000 </r>
       <r>   -6.6285    1.0000 </r>
       <r>   -6.3280    1.0000 </r>
       <r>   -6.3105    1.0000 </r>
       <r>   -6.3006    1.0000 </r>
       <r>   -6.0396    1.0000 </r>
       <r>   -5.8045    1.0000 </r>
       <r>   -5.7054    1.0000 </r>
       <r>   -5.5249    1.0000 </r>
       <r>   -5.3287    1.0000 </r>
       <r>   -4.8907    1.0000 </r>
       <r>   -4.5546    1.0000 </r>
       <r>   -4.4840    1.0000 </r>
       <r>   -4.1559    1.0000 </r>
       <r>   -4.0144    1.0000 </r>
       <r>   -3.7395    1.0000 </r>
       <r>   -3.7129    1.0000 </r>
       <r>   -3.5027    1.0000 </r>
       <r>   -3.3490    1.0000 </r>
       <r>   -3.1702    1.0000 </r>
       <r>   -1.9867    0.0000 </r>
       <r>   -1.4029    0.0000 </r>
       <r>   -1.3992    0.0000 </r>
       <r>   -1.2204    0.0000 </r>
       <r>    0.6356    0.0000 </r>
       <r>    0.8909    0.0000 </r>
       <r>    1.4163    0.0000 </r>
       <r>    1.5555    0.0000 </r>
       <r>    2.2805    0.0000 </r>
       <r>    2.3736    0.0000 </r>
       <r>    2.6433    0.0000 </r>
       <r>    2.6968    0.0000 </r>
       <r>    2.9501    0.0000 </r>
       <r>    3.2114    0.0000 </r>
       <r>    3.2469    0.0000 </r>
       <r>    3.8237    0.0000 </r>
       <r>    3.9899    0.0000 </r>
      </set>
      <set comment="kpoint 5">
       <r>  -16.5429    1.0000 </r>
       <r>  -15.9877    1.0000 </r>
       <r>  -15.8615    1.0000 </r>
       <r>  -15.6213    1.0000 </r>
       <r>  -15.4309    1.0000 </r>
       <r>  -15.2932    1.0000 </r>
       <r>  -10.6594    1.0000 </r>
       <r>   -9.4222    1.0000 </r>
       <r>   -8.0884    1.0000 </r>
       <r>   -7.6005    1.0000 </r>
       <r>   -7.5822    1.0000 </r>
       <r>   -7.0784    1.0000 </r>
       <r>   -7.0387    1.0000 </r>
       <r>   -6.6022    1.0000 </r>
       <r>   -6.2965    1.0000 </r>
       <r>   -6.1403    1.0000 </r>
       <r>   -5.9526    1.0000 </r>
       <r>   -5.8308    1.0000 </r>
       <r>   -5.6144    1.0000 </r>
       <r>   -5.5459    1.0000 </r>
       <r>   -5.3278    1.0000 </r>
       <r>   -4.7634    1.0000 </r>
       <r>   -4.5920    1.0000 </r>
       <r>   -4.4646    1.0000 </r>
       <r>   -4.4106    1.0000 </r>
       <r>   -3.9769    1.0000 </r>
       <r>   -3.8556    1.0000 </r>
       <r>   -3.6327    1.0000 </r>
       <r>   -3.4494    1.0000 </r>
       <r>   -3.3417    1.0000 </r>
       <r>   -3.2681    1.0000 </r>
       <r>   -1.7115    0.0000 </r>
       <r>   -1.6703    0.0000 </r>
       <r>   -1.3148    0.0000 </r>
       <r>   -1.1454    0.0000 </r>
       <r>    0.1720    0.0000 </r>
       <r>    0.8475    0.0000 </r>
       <r>    1.1030    0.0000 </r>
       <r>    1.4171    0.0000 </r>
       <r>    2.0019    0.0000 </r>
       <r>    2.2664    0.0000 </r>
       <r>    2.3547    0.0000 </r>
       <r>    3.1597    0.0000 </r>
       <r>    3.3071    0.0000 </r>
       <r>    3.3733    0.0000 </r>
       <r>    3.5343    0.0000 </r>
       <r>    3.6251    0.0000 </r>
       <r>    4.0540    0.0000 </r>
      </set>
     </set>
     <set comment="spin 2">
      <set comment="kpoint 1">
       <r>  -17.2483    1.0000 </r>
       <r>  -16.3457    1.0000 </r>
       <r>  -15.2030    1.0000 </r>
       <r>  -15.2030    1.0000 </r>
       <r>  -15.1079    1.0000 </r>
       <r>  -15.1078    1.0000 </r>
       <r>  -11.0526    1.0000 </r>
       <r>   -9.1189    1.0000 </r>
       <r>   -8.0142    1.0000 </r>
       <r>   -8.0141    1.0000 </r>
       <r>   -7.9217    1.0000 </r>
       <r>   -7.6184    1.0000 </r>
       <r>   -7.6184    1.0000 </r>
       <r>   -7.1797    1.0000 </r>
       <r>   -6.1861    1.0000 </r>
       <r>   -5.2860    1.0000 </r>
       <r>   -5.2859    1.0000 </r>
       <r>   -5.2140    1.0000 </r>
       <r>   -5.2140    1.0000 </r>
       <r>   -4.9801    1.0000 </r>
       <r>   -4.5792    1.0000 </r>
       <r>   -4.5792    1.0000 </r>
       <r>   -4.0693    1.0000 </r>
       <r>   -3.6537    1.0000 </r>
       <r>   -3.6536    1.0000 </r>
       <r>   -1.3042    0.0000 </r>
       <r>   -1.3042    0.0000 </r>
       <r>   -1.2162    0.0000 </r>
       <r>   -0.8940    0.0000 </r>
       <r>   -0.8940    0.0000 </r>
       <r>   -0.7260    0.0000 </r>
       <r>   -0.2518    0.0000 </r>
       <r>   -0.2518    0.0000 </r>
       <r>   -0.0114    0.0000 </r>
       <r>   -0.0114    0.0000 </r>
       <r>    0.4671    0.0000 </r>
       <r>    0.6816    0.0000 </r>
       <r>    1.7978    0.0000 </r>
       <r>    1.7978    0.0000 </r>
       <r>    2.1629    0.0000 </r>
       <r>    2.2257    0.0000 </r>
       <r>    2.6345    0.0000 </r>
       <r>    2.8973    0.0000 </r>
       <r>    3.3516    0.0000 </r>
       <r>    3.3517    0.0000 </r>
       <r>    3.5674    0.0000 </r>
       <r>    3.7686    0.0000 </r>
       <r>    4.4958    0.0000 </r>
      </set>
      <set comment="kpoint 2">
       <r>  -17.1064    1.0000 </r>
       <r>  -16.2445    1.0000 </r>
       <r>  -15.4272    1.0000 </r>
       <r>  -15.2735    1.0000 </r>
       <r>  -15.1903    1.0000 </r>
       <r>  -15.1851    1.0000 </r>
       <r>  -10.9516    1.0000 </r>
       <r>   -9.2726    1.0000 </r>
       <r>   -7.9906    1.0000 </r>
       <r>   -7.9845    1.0000 </r>
       <r>   -7.7879    1.0000 </r>
       <r>   -7.5237    1.0000 </r>
       <r>   -7.0847    1.0000 </r>
       <r>   -6.4504    1.0000 </r>
       <r>   -5.9755    1.0000 </r>
       <r>   -5.6662    1.0000 </r>
       <r>   -5.5823    1.0000 </r>
       <r>   -5.2491    1.0000 </r>
       <r>   -5.2364    1.0000 </r>
       <r>   -4.8497    1.0000 </r>
       <r>   -4.7571    1.0000 </r>
       <r>   -4.6697    1.0000 </r>
       <r>   -4.6276    1.0000 </r>
       <r>   -3.9424    1.0000 </r>
       <r>   -3.6804    1.0000 </r>
       <r>   -1.3808    0.0000 </r>
       <r>   -1.2835    0.0000 </r>
       <r>   -1.2588    0.0000 </r>
       <r>   -0.8782    0.0000 </r>
       <r>   -0.8726    0.0000 </r>
       <r>   -0.7333    0.0000 </r>
       <r>   -0.5671    0.0000 </r>
       <r>   -0.3394    0.0000 </r>
       <r>   -0.0849    0.0000 </r>
       <r>    0.0066    0.0000 </r>
       <r>    0.9710    0.0000 </r>
       <r>    1.1099    0.0000 </r>
       <r>    1.6805    0.0000 </r>
       <r>    1.7304    0.0000 </r>
       <r>    2.3557    0.0000 </r>
       <r>    2.3748    0.0000 </r>
       <r>    2.6241    0.0000 </r>
       <r>    2.8284    0.0000 </r>
       <r>    3.3597    0.0000 </r>
       <r>    3.3719    0.0000 </r>
       <r>    3.7158    0.0000 </r>
       <r>    3.7859    0.0000 </r>
       <r>    4.2856    0.0000 </r>
      </set>
      <set comment="kpoint 3">
       <r>  -16.7434    1.0000 </r>
       <r>  -16.0002    1.0000 </r>
       <r>  -15.9265    1.0000 </r>
       <r>  -15.4327    1.0000 </r>
       <r>  -15.3643    1.0000 </r>
       <r>  -15.2960    1.0000 </r>
       <r>  -10.7782    1.0000 </r>
       <r>   -9.3811    1.0000 </r>
       <r>   -7.9068    1.0000 </r>
       <r>   -7.7926    1.0000 </r>
       <r>   -7.2862    1.0000 </r>
       <r>   -6.9183    1.0000 </r>
       <r>   -6.4744    1.0000 </r>
       <r>   -6.3303    1.0000 </r>
       <r>   -5.9333    1.0000 </r>
       <r>   -5.8942    1.0000 </r>
       <r>   -5.7186    1.0000 </r>
       <r>   -5.6594    1.0000 </r>
       <r>   -5.3358    1.0000 </r>
       <r>   -5.1502    1.0000 </r>
       <r>   -4.8464    1.0000 </r>
       <r>   -4.8365    1.0000 </r>
       <r>   -4.5637    1.0000 </r>
       <r>   -4.4134    1.0000 </r>
       <r>   -3.5009    1.0000 </r>
       <r>   -2.0119    0.0000 </r>
       <r>   -1.3771    0.0000 </r>
       <r>   -1.3037    0.0000 </r>
       <r>   -0.8955    0.0000 </r>
       <r>   -0.8302    0.0000 </r>
       <r>   -0.6449    0.0000 </r>
       <r>   -0.5933    0.0000 </r>
       <r>   -0.5285    0.0000 </r>
       <r>   -0.0209    0.0000 </r>
       <r>    0.0863    0.0000 </r>
       <r>    0.7113    0.0000 </r>
       <r>    1.4220    0.0000 </r>
       <r>    1.4891    0.0000 </r>
       <r>    1.9627    0.0000 </r>
       <r>    2.4155    0.0000 </r>
       <r>    2.5486    0.0000 </r>
       <r>    2.8994    0.0000 </r>
       <r>    3.0629    0.0000 </r>
       <r>    3.2151    0.0000 </r>
       <r>    3.4412    0.0000 </r>
       <r>    3.5089    0.0000 </r>
       <r>    3.7583    0.0000 </r>
       <r>    3.8252    0.0000 </r>
      </set>
      <set comment="kpoint 4">
       <r>  -16.8478    1.0000 </r>
       <r>  -16.0672    1.0000 </r>
       <r>  -15.6926    1.0000 </r>
       <r>  -15.5097    1.0000 </r>
       <r>  -15.3257    1.0000 </r>
       <r>  -15.2657    1.0000 </r>
       <r>  -10.7708    1.0000 </r>
       <r>   -9.3371    1.0000 </r>
       <r>   -8.1101    1.0000 </r>
       <r>   -7.7077    1.0000 </r>
       <r>   -7.5653    1.0000 </r>
       <r>   -7.0877    1.0000 </r>
       <r>   -6.4667    1.0000 </r>
       <r>   -6.0698    1.0000 </r>
       <r>   -5.9423    1.0000 </r>
       <r>   -5.8830    1.0000 </r>
       <r>   -5.6395    1.0000 </r>
       <r>   -5.5873    1.0000 </r>
       <r>   -5.5787    1.0000 </r>
       <r>   -5.0891    1.0000 </r>
       <r>   -5.0196    1.0000 </r>
       <r>   -4.6870    1.0000 </r>
       <r>   -4.5364    1.0000 </r>
       <r>   -4.1686    1.0000 </r>
       <r>   -3.5068    1.0000 </r>
       <r>   -1.8222    0.0000 </r>
       <r>   -1.4639    0.0000 </r>
       <r>   -1.3909    0.0000 </r>
       <r>   -0.8224    0.0000 </r>
       <r>   -0.8111    0.0000 </r>
       <r>   -0.6898    0.0000 </r>
       <r>   -0.6863    0.0000 </r>
       <r>   -0.2465    0.0000 </r>
       <r>   -0.1513    0.0000 </r>
       <r>    0.1114    0.0000 </r>
       <r>    0.7748    0.0000 </r>
       <r>    1.3291    0.0000 </r>
       <r>    1.5010    0.0000 </r>
       <r>    1.6630    0.0000 </r>
       <r>    2.4412    0.0000 </r>
       <r>    2.5936    0.0000 </r>
       <r>    2.8410    0.0000 </r>
       <r>    2.9645    0.0000 </r>
       <r>    3.0745    0.0000 </r>
       <r>    3.2901    0.0000 </r>
       <r>    3.6039    0.0000 </r>
       <r>    4.0404    0.0000 </r>
       <r>    4.1382    0.0000 </r>
      </set>
      <set comment="kpoint 5">
       <r>  -16.5602    1.0000 </r>
       <r>  -15.9927    1.0000 </r>
       <r>  -15.8888    1.0000 </r>
[...]
        <r>  0.0002  0.0031  0.0016  0.0003  0.0000  0.0000  0.0000  0.0000  0.0000 </r>
        <r>  0.0000  0.0013  0.0000  0.0037  0.0000  0.0000  0.0000  0.0000  0.0000 </r>
        <r>  0.0002  0.0006  0.0016  0.0028  0.0000  0.0000  0.0000  0.0000  0.0000 </r>
       </set>
       <set comment="band 30">
        <r>  0.0006  0.0000  0.0000  0.0000  0.0693  0.0088  0.2125  0.0058  0.0993 </r>
        <r>  0.0006  0.0000  0.0000  0.0000  0.0693  0.0088  0.2125  0.0058  0.0993 </r>
        <r>  0.0024  0.0014  0.0048  0.0005  0.0000  0.0000  0.0000  0.0000  0.0000 </r>
        <r>  0.0024  0.0014  0.0048  0.0005  0.0000  0.0000  0.0000  0.0000  0.0000 </r>
        <r>  0.0010  0.0017  0.0013  0.0002  0.0000  0.0000  0.0000  0.0000  0.0000 </r>
        <r>  0.0025  0.0015  0.0076  0.0005  0.0000  0.0000  0.0000  0.0000  0.0000 </r>
        <r>  0.0010  0.0001  0.0013  0.0018  0.0000  0.0000  0.0000  0.0000  0.0000 </r>
        <r>  0.0010  0.0017  0.0013  0.0002  0.0000  0.0000  0.0000  0.0000  0.0000 </r>
        <r>  0.0025  0.0015  0.0076  0.0005  0.0000  0.0000  0.0000  0.0000  0.0000 </r>
        <r>  0.0010  0.0001  0.0013  0.0018  0.0000  0.0000  0.0000  0.0000  0.0000 </r>
       </set>
       <set comment="band 31">
        <r>  0.0018  0.0001  0.0001  0.0002  0.2007  0.0013  0.1549  0.0020  0.0714 </r>
        <r>  0.0018  0.0001  0.0001  0.0002  0.2007  0.0013  0.1549  0.0020  0.0714 </r>
        <r>  0.0000  0.0009  0.0000  0.0027  0.0000  0.0000  0.0000  0.0000  0.0000 </r>
        <r>  0.0000  0.0009  0.0000  0.0027  0.0000  0.0000  0.0000  0.0000  0.0000 </r>
        <r>  0.0006  0.0041  0.0019  0.0009  0.0000  0.0000  0.0000  0.0000  0.0000 </r>
        <r>  0.0000  0.0005  0.0000  0.0016  0.0000  0.0000  0.0000  0.0000  0.0000 </r>
        <r>  0.0006  0.0032  0.0018  0.0018  0.0000  0.0000  0.0000  0.0000  0.0000 </r>
        <r>  0.0006  0.0041  0.0019  0.0009  0.0000  0.0000  0.0000  0.0000  0.0000 </r>
        <r>  0.0000  0.0005  0.0000  0.0016  0.0000  0.0000  0.0000  0.0000  0.0000 </r>
        <r>  0.0006  0.0032  0.0018  0.0018  0.0000  0.0000  0.0000  0.0000  0.0000 </r>
       </set>
       <set comment="band 32">
        <r>  0.0003  0.0010  0.0000  0.0005  0.0543  0.0525  0.0267  0.1352  0.0302 </r>
        <r>  0.0003  0.0010  0.0000  0.0005  0.0543  0.0525  0.0267  0.1352  0.0302 </r>
        <r>  0.0045  0.0003  0.0178  0.0001  0.0000  0.0000  0.0000  0.0000  0.0000 </r>
        <r>  0.0045  0.0003  0.0178  0.0001  0.0000  0.0000  0.0000  0.0000  0.0000 </r>
        <r>  0.0062  0.0008  0.0052  0.0052  0.0000  0.0000  0.0000  0.0000  0.0000 </r>
        <r>  0.0072  0.0004  0.0022  0.0001  0.0000  0.0000  0.0000  0.0000  0.0000 </r>
        <r>  0.0062  0.0059  0.0052  0.0001  0.0000  0.0000  0.0000  0.0000  0.0000 </r>
        <r>  0.0062  0.0008  0.0052  0.0052  0.0000  0.0000  0.0000  0.0000  0.0000 </r>
        <r>  0.0072  0.0004  0.0022  0.0001  0.0000  0.0000  0.0000  0.0000  0.0000 </r>
        <r>  0.0062  0.0059  0.0052  0.0001  0.0000  0.0000  0.0000  0.0000  0.0000 </r>
       </set>
       <set comment="band 33">
        <r>  0.0004  0.0001  0.0015  0.0001  0.0068  0.1932  0.0302  0.0813  0.0098 </r>
        <r>  0.0004  0.0001  0.0015  0.0001  0.0068  0.1932  0.0302  0.0813  0.0098 </r>
        <r>  0.0000  0.0016  0.0000  0.0047  0.0000  0.0000  0.0000  0.0000  0.0000 </r>
        <r>  0.0000  0.0016  0.0000  0.0047  0.0000  0.0000  0.0000  0.0000  0.0000 </r>
        <r>  0.0042  0.0074  0.0063  0.0055  0.0000  0.0000  0.0000  0.0000  0.0000 </r>
        <r>  0.0000  0.0017  0.0000  0.0052  0.0000  0.0000  0.0000  0.0000  0.0000 </r>
        <r>  0.0042  0.0029  0.0063  0.0099  0.0000  0.0000  0.0000  0.0000  0.0000 </r>
        <r>  0.0042  0.0074  0.0063  0.0055  0.0000  0.0000  0.0000  0.0000  0.0000 </r>
        <r>  0.0000  0.0017  0.0000  0.0052  0.0000  0.0000  0.0000  0.0000  0.0000 </r>
        <r>  0.0042  0.0029  0.0063  0.0099  0.0000  0.0000  0.0000  0.0000  0.0000 </r>
       </set>
       <set comment="band 34">
        <r>  0.0004  0.0003  0.0009  0.0004  0.0605  0.1306  0.0129  0.0635  0.0204 </r>
        <r>  0.0004  0.0003  0.0009  0.0004  0.0605  0.1306  0.0129  0.0635  0.0204 </r>
        <r>  0.0156  0.0009  0.0004  0.0003  0.0000  0.0000  0.0000  0.0000  0.0000 </r>
        <r>  0.0156  0.0009  0.0004  0.0003  0.0000  0.0000  0.0000  0.0000  0.0000 </r>
        <r>  0.0052  0.0036  0.0121  0.0095  0.0000  0.0000  0.0000  0.0000  0.0000 </r>
        <r>  0.0002  0.0072  0.0063  0.0024  0.0000  0.0000  0.0000  0.0000  0.0000 </r>
        <r>  0.0052  0.0125  0.0122  0.0006  0.0000  0.0000  0.0000  0.0000  0.0000 </r>
        <r>  0.0052  0.0036  0.0121  0.0095  0.0000  0.0000  0.0000  0.0000  0.0000 </r>
        <r>  0.0002  0.0072  0.0063  0.0024  0.0000  0.0000  0.0000  0.0000  0.0000 </r>
        <r>  0.0052  0.0125  0.0122  0.0006  0.0000  0.0000  0.0000  0.0000  0.0000 </r>
       </set>
       <set comment="band 35">
        <r>  0.0003  0.0001  0.0000  0.0001  0.0046  0.0929  0.0048  0.2080  0.0129 </r>
        <r>  0.0003  0.0001  0.0000  0.0001  0.0046  0.0929  0.0048  0.2080  0.0129 </r>
        <r>  0.0000  0.0002  0.0000  0.0007  0.0000  0.0000  0.0000  0.0000  0.0000 </r>
        <r>  0.0000  0.0002  0.0000  0.0007  0.0000  0.0000  0.0000  0.0000  0.0000 </r>
        <r>  0.0018  0.0289  0.0018  0.0011  0.0000  0.0000  0.0000  0.0000  0.0000 </r>
        <r>  0.0000  0.0072  0.0000  0.0214  0.0000  0.0000  0.0000  0.0000  0.0000 </r>
        <r>  0.0018  0.0035  0.0018  0.0266  0.0000  0.0000  0.0000  0.0000  0.0000 </r>
        <r>  0.0018  0.0289  0.0018  0.0011  0.0000  0.0000  0.0000  0.0000  0.0000 </r>
        <r>  0.0000  0.0072  0.0000  0.0214  0.0000  0.0000  0.0000  0.0000  0.0000 </r>
        <r>  0.0018  0.0035  0.0018  0.0266  0.0000  0.0000  0.0000  0.0000  0.0000 </r>
       </set>
       <set comment="band 36">
        <r>  0.0000  0.0034  0.0000  0.0020  0.0090  0.0228  0.0027  0.0417  0.0192 </r>
        <r>  0.0000  0.0034  0.0000  0.0020  0.0090  0.0228  0.0027  0.0417  0.0192 </r>
        <r>  0.0580  0.0003  0.0110  0.0001  0.0000  0.0000  0.0000  0.0000  0.0000 </r>
        <r>  0.0580  0.0003  0.0110  0.0001  0.0000  0.0000  0.0000  0.0000  0.0000 </r>
        <r>  0.0045  0.0079  0.0001  0.0229  0.0000  0.0000  0.0000  0.0000  0.0000 </r>
        <r>  0.0062  0.0309  0.0104  0.0104  0.0000  0.0000  0.0000  0.0000  0.0000 </r>
        <r>  0.0045  0.0077  0.0001  0.0232  0.0000  0.0000  0.0000  0.0000  0.0000 </r>
        <r>  0.0045  0.0079  0.0001  0.0229  0.0000  0.0000  0.0000  0.0000  0.0000 </r>
        <r>  0.0062  0.0309  0.0104  0.0104  0.0000  0.0000  0.0000  0.0000  0.0000 </r>
        <r>  0.0045  0.0077  0.0001  0.0232  0.0000  0.0000  0.0000  0.0000  0.0000 </r>
       </set>
       <set comment="band 37">
        <r>  0.0100  0.0005  0.0031  0.0015  0.0026  0.0064  0.0073  0.0021  0.0011 </r>
        <r>  0.0100  0.0005  0.0031  0.0015  0.0026  0.0064  0.0073  0.0021  0.0011 </r>
        <r>  0.0036  0.0427  0.0015  0.0143  0.0000  0.0000  0.0000  0.0000  0.0000 </r>
        <r>  0.0036  0.0427  0.0015  0.0143  0.0000  0.0000  0.0000  0.0000  0.0000 </r>
        <r>  0.0013  0.0031  0.0043  0.0026  0.0000  0.0000  0.0000  0.0000  0.0000 </r>
        <r>  0.0177  0.0249  0.0055  0.0083  0.0000  0.0000  0.0000  0.0000  0.0000 </r>
        <r>  0.0013  0.0011  0.0043  0.0045  0.0000  0.0000  0.0000  0.0000  0.0000 </r>
        <r>  0.0013  0.0031  0.0043  0.0026  0.0000  0.0000  0.0000  0.0000  0.0000 </r>
        <r>  0.0177  0.0249  0.0055  0.0083  0.0000  0.0000  0.0000  0.0000  0.0000 </r>
        <r>  0.0013  0.0011  0.0043  0.0045  0.0000  0.0000  0.0000  0.0000  0.0000 </r>
       </set>
       <set comment="band 38">
        <r>  0.0009  0.0005  0.0001  0.0011  0.0351  0.0498  0.0005  0.0294  0.0224 </r>
        <r>  0.0009  0.0005  0.0001  0.0011  0.0351  0.0498  0.0005  0.0294  0.0224 </r>
        <r>  0.0317  0.0017  0.0398  0.0005  0.0000  0.0000  0.0000  0.0000  0.0000 </r>
        <r>  0.0317  0.0017  0.0398  0.0005  0.0000  0.0000  0.0000  0.0000  0.0000 </r>
        <r>  0.0024  0.0007  0.0052  0.0312  0.0000  0.0000  0.0000  0.0000  0.0000 </r>
        <r>  0.0010  0.0214  0.0029  0.0072  0.0000  0.0000  0.0000  0.0000  0.0000 </r>
        <r>  0.0025  0.0198  0.0053  0.0120  0.0000  0.0000  0.0000  0.0000  0.0000 </r>
        <r>  0.0024  0.0007  0.0052  0.0312  0.0000  0.0000  0.0000  0.0000  0.0000 </r>
        <r>  0.0010  0.0214  0.0029  0.0072  0.0000  0.0000  0.0000  0.0000  0.0000 </r>
        <r>  0.0025  0.0198  0.0053  0.0120  0.0000  0.0000  0.0000  0.0000  0.0000 </r>
       </set>
       <set comment="band 39">
        <r>  0.0100  0.0019  0.0019  0.0016  0.0018  0.0141  0.0124  0.0055  0.0012 </r>
        <r>  0.0100  0.0019  0.0019  0.0016  0.0018  0.0141  0.0124  0.0055  0.0012 </r>
        <r>  0.0000  0.0126  0.0000  0.0378  0.0000  0.0000  0.0000  0.0000  0.0000 </r>
        <r>  0.0000  0.0126  0.0000  0.0378  0.0000  0.0000  0.0000  0.0000  0.0000 </r>
        <r>  0.0080  0.0132  0.0037  0.0197  0.0000  0.0000  0.0000  0.0000  0.0000 </r>
        <r>  0.0000  0.0042  0.0000  0.0124  0.0000  0.0000  0.0000  0.0000  0.0000 </r>
        <r>  0.0079  0.0323  0.0037  0.0008  0.0000  0.0000  0.0000  0.0000  0.0000 </r>
        <r>  0.0080  0.0132  0.0037  0.0197  0.0000  0.0000  0.0000  0.0000  0.0000 </r>
        <r>  0.0000  0.0042  0.0000  0.0124  0.0000  0.0000  0.0000  0.0000  0.0000 </r>
        <r>  0.0079  0.0323  0.0037  0.0008  0.0000  0.0000  0.0000  0.0000  0.0000 </r>
       </set>
       <set comment="band 40">
        <r>  0.0351  0.0009  0.0035  0.0012  0.0063  0.0025  0.0143  0.0039  0.0125 </r>
        <r>  0.0351  0.0009  0.0035  0.0012  0.0063  0.0025  0.0143  0.0039  0.0125 </r>
        <r>  0.0034  0.0282  0.0025  0.0093  0.0000  0.0000  0.0000  0.0000  0.0000 </r>
        <r>  0.0034  0.0282  0.0025  0.0093  0.0000  0.0000  0.0000  0.0000  0.0000 </r>
        <r>  0.0010  0.0024  0.0018  0.0001  0.0000  0.0000  0.0000  0.0000  0.0000 </r>
        <r>  0.0184  0.0083  0.0011  0.0028  0.0000  0.0000  0.0000  0.0000  0.0000 </r>
        <r>  0.0011  0.0002  0.0018  0.0023  0.0000  0.0000  0.0000  0.0000  0.0000 </r>
        <r>  0.0010  0.0024  0.0018  0.0001  0.0000  0.0000  0.0000  0.0000  0.0000 </r>
        <r>  0.0184  0.0083  0.0011  0.0028  0.0000  0.0000  0.0000  0.0000  0.0000 </r>
        <r>  0.0011  0.0002  0.0018  0.0023  0.0000  0.0000  0.0000  0.0000  0.0000 </r>
       </set>
       <set comment="band 41">
        <r>  0.0034  0.0067  0.0007  0.0033  0.0199  0.0069  0.0041  0.0120  0.0135 </r>
        <r>  0.0034  0.0067  0.0007  0.0033  0.0199  0.0069  0.0041  0.0120  0.0135 </r>
        <r>  0.0387  0.0038  0.0161  0.0018  0.0000  0.0000  0.0000  0.0000  0.0000 </r>
        <r>  0.0387  0.0038  0.0161  0.0018  0.0000  0.0000  0.0000  0.0000  0.0000 </r>
        <r>  0.0006  0.0003  0.0087  0.0038  0.0000  0.0000  0.0000  0.0000  0.0000 </r>
        <r>  0.0014  0.0025  0.0252  0.0006  0.0000  0.0000  0.0000  0.0000  0.0000 </r>
        <r>  0.0004  0.0031  0.0089  0.0009  0.0000  0.0000  0.0000  0.0000  0.0000 </r>
        <r>  0.0006  0.0003  0.0087  0.0038  0.0000  0.0000  0.0000  0.0000  0.0000 </r>
        <r>  0.0014  0.0025  0.0252  0.0006  0.0000  0.0000  0.0000  0.0000  0.0000 </r>
        <r>  0.0004  0.0031  0.0089  0.0009  0.0000  0.0000  0.0000  0.0000  0.0000 </r>
       </set>
       <set comment="band 42">
        <r>  0.0182  0.0003  0.0011  0.0001  0.0098  0.0086  0.0069  0.0130  0.0174 </r>
        <r>  0.0182  0.0003  0.0011  0.0001  0.0098  0.0086  0.0069  0.0130  0.0174 </r>
        <r>  0.0000  0.0125  0.0000  0.0362  0.0000  0.0000  0.0000  0.0000  0.0000 </r>
        <r>  0.0000  0.0125  0.0000  0.0362  0.0000  0.0000  0.0000  0.0000  0.0000 </r>
        <r>  0.0059  0.0060  0.0009  0.0116  0.0000  0.0000  0.0000  0.0000  0.0000 </r>
        <r>  0.0000  0.0041  0.0000  0.0130  0.0000  0.0000  0.0000  0.0000  0.0000 </r>
        <r>  0.0060  0.0169  0.0007  0.0009  0.0000  0.0000  0.0000  0.0000  0.0000 </r>
        <r>  0.0059  0.0060  0.0009  0.0116  0.0000  0.0000  0.0000  0.0000  0.0000 </r>
        <r>  0.0000  0.0041  0.0000  0.0130  0.0000  0.0000  0.0000  0.0000  0.0000 </r>
        <r>  0.0060  0.0169  0.0007  0.0009  0.0000  0.0000  0.0000  0.0000  0.0000 </r>
       </set>
       <set comment="band 43">
        <r>  0.0004  0.0012  0.0012  0.0031  0.0032  0.0016  0.0057  0.0006  0.0057 </r>
        <r>  0.0004  0.0012  0.0012  0.0031  0.0032  0.0016  0.0057  0.0006  0.0057 </r>
        <r>  0.0049  0.0022  0.0055  0.0007  0.0000  0.0000  0.0000  0.0000  0.0000 </r>
        <r>  0.0049  0.0022  0.0055  0.0007  0.0000  0.0000  0.0000  0.0000  0.0000 </r>
        <r>  0.0007  0.0003  0.0034  0.0015  0.0000  0.0000  0.0000  0.0000  0.0000 </r>
        <r>  0.0009  0.0034  0.0038  0.0011  0.0000  0.0000  0.0000  0.0000  0.0000 </r>
        <r>  0.0007  0.0008  0.0034  0.0009  0.0000  0.0000  0.0000  0.0000  0.0000 </r>
        <r>  0.0007  0.0003  0.0034  0.0015  0.0000  0.0000  0.0000  0.0000  0.0000 </r>
        <r>  0.0009  0.0034  0.0038  0.0011  0.0000  0.0000  0.0000  0.0000  0.0000 </r>
        <r>  0.0007  0.0008  0.0034  0.0009  0.0000  0.0000  0.0000  0.0000  0.0000 </r>
       </set>
       <set comment="band 44">
        <r>  0.0042  0.0026  0.0041  0.0010  0.0040  0.0011  0.0014  0.0009  0.0055 </r>
        <r>  0.0042  0.0026  0.0041  0.0010  0.0040  0.0011  0.0014  0.0009  0.0055 </r>
        <r>  0.0000  0.0007  0.0000  0.0022  0.0000  0.0000  0.0000  0.0000  0.0000 </r>
        <r>  0.0000  0.0007  0.0000  0.0022  0.0000  0.0000  0.0000  0.0000  0.0000 </r>
        <r>  0.0024  0.0013  0.0082  0.0009  0.0000  0.0000  0.0000  0.0000  0.0000 </r>
        <r>  0.0000  0.0010  0.0000  0.0029  0.0000  0.0000  0.0000  0.0000  0.0000 </r>
        <r>  0.0024  0.0017  0.0082  0.0005  0.0000  0.0000  0.0000  0.0000  0.0000 </r>
        <r>  0.0024  0.0013  0.0082  0.0009  0.0000  0.0000  0.0000  0.0000  0.0000 </r>
        <r>  0.0000  0.0010  0.0000  0.0029  0.0000  0.0000  0.0000  0.0000  0.0000 </r>
        <r>  0.0024  0.0017  0.0082  0.0005  0.0000  0.0000  0.0000  0.0000  0.0000 </r>
       </set>
       <set comment="band 45">
        <r>  0.0056  0.0003  0.0162  0.0001  0.0074  0.0008  0.0080  0.0003  0.0123 </r>
        <r>  0.0056  0.0003  0.0162  0.0001  0.0074  0.0008  0.0080  0.0003  0.0123 </r>
        <r>  0.0002  0.0028  0.0012  0.0009  0.0000  0.0000  0.0000  0.0000  0.0000 </r>
        <r>  0.0002  0.0028  0.0012  0.0009  0.0000  0.0000  0.0000  0.0000  0.0000 </r>
        <r>  0.0002  0.0019  0.0009  0.0002  0.0000  0.0000  0.0000  0.0000  0.0000 </r>
        <r>  0.0013  0.0016  0.0051  0.0006  0.0000  0.0000  0.0000  0.0000  0.0000 </r>
        <r>  0.0002  0.0001  0.0009  0.0020  0.0000  0.0000  0.0000  0.0000  0.0000 </r>
        <r>  0.0002  0.0019  0.0009  0.0002  0.0000  0.0000  0.0000  0.0000  0.0000 </r>
        <r>  0.0013  0.0016  0.0051  0.0006  0.0000  0.0000  0.0000  0.0000  0.0000 </r>
        <r>  0.0002  0.0001  0.0009  0.0020  0.0000  0.0000  0.0000  0.0000  0.0000 </r>
       </set>
       <set comment="band 46">
        <r>  0.0002  0.0003  0.0012  0.0005  0.0001  0.0000  0.0041  0.0000  0.0002 </r>
        <r>  0.0002  0.0003  0.0012  0.0005  0.0001  0.0000  0.0041  0.0000  0.0002 </r>
        <r>  0.0000  0.0010  0.0000  0.0030  0.0000  0.0000  0.0000  0.0000  0.0000 </r>
        <r>  0.0000  0.0010  0.0000  0.0030  0.0000  0.0000  0.0000  0.0000  0.0000 </r>
        <r>  0.0007  0.0009  0.0038  0.0026  0.0000  0.0000  0.0000  0.0000  0.0000 </r>
        <r>  0.0000  0.0003  0.0000  0.0008  0.0000  0.0000  0.0000  0.0000  0.0000 </r>
        <r>  0.0007  0.0033  0.0038  0.0003  0.0000  0.0000  0.0000  0.0000  0.0000 </r>
        <r>  0.0007  0.0009  0.0038  0.0026  0.0000  0.0000  0.0000  0.0000  0.0000 </r>
        <r>  0.0000  0.0003  0.0000  0.0008  0.0000  0.0000  0.0000  0.0000  0.0000 </r>
        <r>  0.0007  0.0033  0.0038  0.0003  0.0000  0.0000  0.0000  0.0000  0.0000 </r>
       </set>
       <set comment="band 47">
        <r>  0.0367  0.0011  0.0040  0.0016  0.0002  0.0022  0.0031  0.0014  0.0002 </r>
        <r>  0.0367  0.0011  0.0040  0.0016  0.0002  0.0022  0.0031  0.0014  0.0002 </r>
        <r>  0.0010  0.0101  0.0044  0.0034  0.0000  0.0000  0.0000  0.0000  0.0000 </r>
        <r>  0.0010  0.0101  0.0044  0.0034  0.0000  0.0000  0.0000  0.0000  0.0000 </r>
        <r>  0.0004  0.0026  0.0054  0.0007  0.0000  0.0000  0.0000  0.0000  0.0000 </r>
        <r>  0.0002  0.0010  0.0162  0.0003  0.0000  0.0000  0.0000  0.0000  0.0000 </r>
        <r>  0.0004  0.0000  0.0054  0.0033  0.0000  0.0000  0.0000  0.0000  0.0000 </r>
        <r>  0.0004  0.0026  0.0054  0.0007  0.0000  0.0000  0.0000  0.0000  0.0000 </r>
        <r>  0.0002  0.0010  0.0162  0.0003  0.0000  0.0000  0.0000  0.0000  0.0000 </r>
        <r>  0.0004  0.0000  0.0054  0.0033  0.0000  0.0000  0.0000  0.0000  0.0000 </r>
       </set>
       <set comment="band 48">
        <r>  0.0023  0.0004  0.0000  0.0010  0.0004  0.0000  0.0000  0.0001  0.0003 </r>
        <r>  0.0023  0.0004  0.0000  0.0010  0.0004  0.0000  0.0000  0.0001  0.0003 </r>
        <r>  0.0005  0.0004  0.0000  0.0001  0.0000  0.0000  0.0000  0.0000  0.0000 </r>
        <r>  0.0005  0.0004  0.0000  0.0001  0.0000  0.0000  0.0000  0.0000  0.0000 </r>
        <r>  0.0002  0.0002  0.0005  0.0002  0.0000  0.0000  0.0000  0.0000  0.0000 </r>
        <r>  0.0002  0.0005  0.0008  0.0002  0.0000  0.0000  0.0000  0.0000  0.0000 </r>
        <r>  0.0002  0.0003  0.0005  0.0001  0.0000  0.0000  0.0000  0.0000  0.0000 </r>
        <r>  0.0002  0.0002  0.0005  0.0002  0.0000  0.0000  0.0000  0.0000  0.0000 </r>
        <r>  0.0002  0.0005  0.0008  0.0002  0.0000  0.0000  0.0000  0.0000  0.0000 </r>
        <r>  0.0002  0.0003  0.0005  0.0001  0.0000  0.0000  0.0000  0.0000  0.0000 </r>
       </set>
      </set>
     </set>
    </set>
   </array>
  </projected>
 </calculation>
 <structure name="finalpos" >
  <crystal>
   <varray name="basis" >
    <v>       5.92729668       0.00000005      -0.00000000 </v>
    <v>       2.96364801       5.13318932      -0.00000000 </v>
    <v>       0.00000000      -0.00000000      21.77839914 </v>
   </varray>
   <i name="volume">    662.62817474 </i>
   <varray name="rec_basis" >
    <v>       0.16871098      -0.09740532      -0.00000000 </v>
    <v>      -0.00000000       0.19481066       0.00000000 </v>
    <v>       0.00000000       0.00000000       0.04591706 </v>
   </varray>
  </crystal>
  <varray name="positions" >
   <v>       0.33333300       0.33333300       0.49992500 </v>
   <v>       0.66666700       0.66666700       0.50007500 </v>
   <v>      -0.00000000       0.00000000       0.44918612 </v>
   <v>      -0.00000000      -0.00000000       0.55081388 </v>
   <v>       0.64254014       0.00019878       0.57119646 </v>
   <v>       0.00019878       0.35726208       0.57119646 </v>
   <v>       0.35726208       0.64254014       0.57119646 </v>
   <v>       0.35745986       0.99980122       0.42880354 </v>
   <v>       0.99980122       0.64273792       0.42880354 </v>
   <v>       0.64273792       0.35745986       0.42880354 </v>
  </varray>
  <varray name="selective"  type="logical" >
   <v type="logical" >  F  F  F </v>
   <v type="logical" >  F  F  F </v>
   <v type="logical" >  T  T  T </v>
   <v type="logical" >  T  T  T </v>
   <v type="logical" >  T  T  T </v>
   <v type="logical" >  T  T  T </v>
   <v type="logical" >  T  T  T </v>
   <v type="logical" >  T  T  T </v>
   <v type="logical" >  T  T  T </v>
   <v type="logical" >  T  T  T </v>
  </varray>
  <nose>
   <v>      -3.00000000       0.00000000       0.00010000       0.00010000 </v>
  </nose>
 </structure>
</modeling>
