unknown system                          
           1
     6.907777   -0.000000    0.000000
     3.453888    5.982310    0.000000
     0.000000    0.000000   23.444588
   Cr   Si   S 
   2   2   6
Direct configuration=     1
   0.33333300  0.33333300  0.49992500
   0.66666700  0.66666700  0.50007500
   0.00000000  0.00000000  0.44821600
   0.00000000  0.00000000  0.55178400
   0.62635700  0.00042000  0.57375200
   0.00042000  0.37322400  0.57375200
   0.37322400  0.62635700  0.57375200
   0.37364300  0.99958000  0.42624800
   0.99958000  0.62677600  0.42624800
   0.62677600  0.37364300  0.42624800
unknown system                          
           1
     5.885133    0.000000   -0.000000
     2.942566    5.096675   -0.000000
     0.000000    0.000000   21.469786
   Cr   Si   S 
   2   2   6
Direct configuration=     2
   0.33333300  0.33333300  0.49992500
   0.66666700  0.66666700  0.50007500
  -0.00000000  0.00000000  0.44825539
  -0.00000000 -0.00000000  0.55174461
   0.63619023  0.00037839  0.57032046
   0.00037839  0.36343237  0.57032046
   0.36343237  0.63619023  0.57032046
   0.36380977  0.99962161  0.42967954
   0.99962161  0.63656763  0.42967954
   0.63656763  0.36380977  0.42967954
unknown system                          
           1
     5.924879    0.000000   -0.000000
     2.962439    5.131095   -0.000000
     0.000000    0.000000   21.546538
   Cr   Si   S 
   2   2   6
Direct configuration=     3
   0.33333300  0.33333300  0.49992500
   0.66666700  0.66666700  0.50007500
  -0.00000000  0.00000000  0.44825372
  -0.00000000 -0.00000000  0.55174628
   0.63574165  0.00038029  0.57046609
   0.00038029  0.36387906  0.57046609
   0.36387906  0.63574165  0.57046609
   0.36425835  0.99961971  0.42953391
   0.99961971  0.63612094  0.42953391
   0.63612094  0.36425835  0.42953391
unknown system                          
           1
     5.914412    0.000000   -0.000000
     2.957206    5.122031   -0.000000
     0.000000   -0.000000   21.705687
   Cr   Si   S 
   2   2   6
Direct configuration=     4
   0.33333300  0.33333300  0.49992500
   0.66666700  0.66666700  0.50007500
  -0.00000000  0.00000000  0.44848947
  -0.00000000 -0.00000000  0.55151053
   0.64000596  0.00028321  0.57087942
   0.00028321  0.35971184  0.57087942
   0.35971184  0.64000596  0.57087942
   0.35999404  0.99971679  0.42912058
   0.99971679  0.64028816  0.42912058
   0.64028816  0.35999404  0.42912058
unknown system                          
           1
     5.910013    0.000000    0.000000
     2.955006    5.118221   -0.000000
     0.000000   -0.000000   21.772574
   Cr   Si   S 
   2   2   6
Direct configuration=     5
   0.33333300  0.33333300  0.49992500
   0.66666700  0.66666700  0.50007500
  -0.00000000  0.00000000  0.44858782
  -0.00000000 -0.00000000  0.55141218
   0.64180134  0.00024233  0.57105186
   0.00024233  0.35795733  0.57105186
   0.35795733  0.64180134  0.57105186
   0.35819866  0.99975767  0.42894814
   0.99975767  0.64204267  0.42894814
   0.64204267  0.35819866  0.42894814
unknown system                          
           1
     5.942137    0.000000   -0.000000
     2.971068    5.146041   -0.000000
     0.000000   -0.000000   21.783401
   Cr   Si   S 
   2   2   6
Direct configuration=     6
   0.33333300  0.33333300  0.49992500
   0.66666700  0.66666700  0.50007500
  -0.00000000  0.00000000  0.44969937
  -0.00000000 -0.00000000  0.55030063
   0.64316816  0.00016176  0.57132051
   0.00016176  0.35667109  0.57132051
   0.35667109  0.64316816  0.57132051
   0.35683184  0.99983824  0.42867949
   0.99983824  0.64332891  0.42867949
   0.64332891  0.35683184  0.42867949
unknown system                          
           1
     5.927297    0.000000   -0.000000
     2.963648    5.133189   -0.000000
     0.000000   -0.000000   21.778399
   Cr   Si   S 
   2   2   6
Direct configuration=     7
   0.33333300  0.33333300  0.49992500
   0.66666700  0.66666700  0.50007500
  -0.00000000  0.00000000  0.44918612
  -0.00000000 -0.00000000  0.55081388
   0.64254014  0.00019878  0.57119646
   0.00019878  0.35726208  0.57119646
   0.35726208  0.64254014  0.57119646
   0.35745986  0.99980122  0.42880354
   0.99980122  0.64273792  0.42880354
   0.64273792  0.35745986  0.42880354
