 vasp.5.4.4.18Apr17-6-g9f103f2a35 (build May  1 2020 15:48:39) complex           
 executed on             LinuxGNU date 2020.07.05  07:58:42
 running on   16 total cores
 distrk:  each k-point on   16 cores,    1 groups
 distr:  one band on NCORES_PER_BAND=   1 cores,   16 groups


--------------------------------------------------------------------------------------------------------


 INCAR:
 POTCAR:   PAW_PBE Fe 06Sep2000                   
 POTCAR:   PAW_PBE Si 05Jan2001                   
 POTCAR:   PAW_PBE Te 08Apr2002                   

 ----------------------------------------------------------------------------- 
|                                                                             |
|           W    W    AA    RRRRR   N    N  II  N    N   GGGG   !!!           |
|           W    W   A  A   R    R  NN   N  II  NN   N  G    G  !!!           |
|           W    W  A    A  R    R  N N  N  II  N N  N  G       !!!           |
|           W WW W  AAAAAA  RRRRR   N  N N  II  N  N N  G  GGG   !            |
|           WW  WW  A    A  R   R   N   NN  II  N   NN  G    G                |
|           W    W  A    A  R    R  N    N  II  N    N   GGGG   !!!           |
|                                                                             |
|      For optimal performance we recommend to set                            |
|        NCORE= 4 - approx SQRT( number of cores)                             |
|      NCORE specifies how many cores store one orbital (NPAR=cpu/NCORE).     |
|      This setting can  greatly improve the performance of VASP for DFT.     |
|      The default,   NCORE=1            might be grossly inefficient         |
|      on modern multi-core architectures or massively parallel machines.     |
|      Do your own testing !!!!                                               |
|      Unfortunately you need to use the default for GW and RPA calculations. |
|      (for HF NCORE is supported but not extensively tested yet)             |
|                                                                             |
 ----------------------------------------------------------------------------- 


 ----------------------------------------------------------------------------- 
|                                                                             |
|  ADVICE TO THIS USER RUNNING 'VASP/VAMP'   (HEAR YOUR MASTER'S VOICE ...):  |
|                                                                             |
|      You have switched on vdW-DFT.                                          |
|      This routine was written and supplied by Jiri Klimes.                  |
|      We recommed that you carefully read and cite the following             |
|      publication                                                            |
|      J. Klimes, D.R. Bowler, A. Michelides                                  |
|        J. Phys.: Cond Matt. 22 022201 (2010)                                |
|      J. Klimes, D.R. Bowler, A. Michelides                                  |
|        Phys. Rev. B. 83, 195131 (2011)                                      |
|      and references therein.                                                |
|                                                                             |
 ----------------------------------------------------------------------------- 

 POTCAR:   PAW_PBE Fe 06Sep2000                   
   VRHFIN =Fe:  d7 s1                                                           
   LEXCH  = PE                                                                  
   EATOM  =   594.4687 eV,   43.6922 Ry                                         
                                                                                
   TITEL  = PAW_PBE Fe 06Sep2000                                                
   LULTRA =        F    use ultrasoft PP ?                                      
   IUNSCR =        1    unscreen: 0-lin 1-nonlin 2-no                           
   RPACOR =    2.000    partial core radius                                     
   POMASS =   55.847; ZVAL   =    8.000    mass and valenz                      
   RCORE  =    2.300    outmost cutoff radius                                   
   RWIGS  =    2.460; RWIGS  =    1.302    wigner-seitz radius (au A)           
   ENMAX  =  267.883; ENMIN  =  200.912 eV                                      
   RCLOC  =    1.701    cutoff for local pot                                    
   LCOR   =        T    correct aug charges                                     
   LPAW   =        T    paw PP                                                  
   EAUG   =  511.368                                                            
   DEXC   =    -.022                                                            
   RMAX   =    2.817    core radius for proj-oper                               
   RAUG   =    1.300    factor for augmentation sphere                          
   RDEP   =    2.442    radius for radial grids                                 
   QCUT   =   -4.437; QGAM   =    8.874    optimization parameters              
                                                                                
   Description                                                                  
     l     E      TYP  RCUT    TYP  RCUT                                        
     2   .000     23  2.300                                                     
     2   .000     23  2.300                                                     
     0   .000     23  2.300                                                     
     0   .000     23  2.300                                                     
     1  -.200     23  2.300                                                     
     1   .000     23  2.300                                                     
     3   .000      7   .000                                                     
  local pseudopotential read in
  partial core-charges read in
  atomic valenz-charges read in
  non local Contribution for L=           2  read in
    real space projection operators read in
  non local Contribution for L=           2  read in
    real space projection operators read in
  non local Contribution for L=           0  read in
    real space projection operators read in
  non local Contribution for L=           0  read in
    real space projection operators read in
  non local Contribution for L=           1  read in
    real space projection operators read in
  non local Contribution for L=           1  read in
    real space projection operators read in
    PAW grid and wavefunctions read in

   number of l-projection  operators is LMAX  =           6
   number of lm-projection operators is LMMAX =          18

 POTCAR:   PAW_PBE Si 05Jan2001                   
   VRHFIN =Si: s2p2                                                             
   LEXCH  = PE                                                                  
   EATOM  =   103.0669 eV,    7.5752 Ry                                         
                                                                                
   TITEL  = PAW_PBE Si 05Jan2001                                                
   LULTRA =        F    use ultrasoft PP ?                                      
   IUNSCR =        1    unscreen: 0-lin 1-nonlin 2-no                           
   RPACOR =    1.500    partial core radius                                     
   POMASS =   28.085; ZVAL   =    4.000    mass and valenz                      
   RCORE  =    1.900    outmost cutoff radius                                   
   RWIGS  =    2.480; RWIGS  =    1.312    wigner-seitz radius (au A)           
   ENMAX  =  245.345; ENMIN  =  184.009 eV                                      
   ICORE  =        2    local potential                                         
   LCOR   =        T    correct aug charges                                     
   LPAW   =        T    paw PP                                                  
   EAUG   =  322.069                                                            
   DEXC   =    -.007                                                            
   RMAX   =    2.944    core radius for proj-oper                               
   RAUG   =    1.300    factor for augmentation sphere                          
   RDEP   =    1.993    radius for radial grids                                 
   QCUT   =   -4.246; QGAM   =    8.493    optimization parameters              
                                                                                
   Description                                                                  
     l     E      TYP  RCUT    TYP  RCUT                                        
     0   .000     23  1.900                                                     
     0   .000     23  1.900                                                     
     1   .000     23  1.900                                                     
     1   .000     23  1.900                                                     
     2   .000      7  1.900                                                     
  local pseudopotential read in
  partial core-charges read in
  atomic valenz-charges read in
  non local Contribution for L=           0  read in
    real space projection operators read in
  non local Contribution for L=           0  read in
    real space projection operators read in
  non local Contribution for L=           1  read in
    real space projection operators read in
  non local Contribution for L=           1  read in
    real space projection operators read in
    PAW grid and wavefunctions read in

   number of l-projection  operators is LMAX  =           4
   number of lm-projection operators is LMMAX =           8

 POTCAR:   PAW_PBE Te 08Apr2002                   
   VRHFIN =Te: s2p4                                                             
   LEXCH  = PE                                                                  
   EATOM  =   223.2721 eV,   16.4100 Ry                                         
                                                                                
   TITEL  = PAW_PBE Te 08Apr2002                                                
   LULTRA =        F    use ultrasoft PP ?                                      
   IUNSCR =        1    unscreen: 0-lin 1-nonlin 2-no                           
   RPACOR =    2.200    partial core radius                                     
   POMASS =  127.600; ZVAL   =    6.000    mass and valenz                      
   RCORE  =    2.300    outmost cutoff radius                                   
   RWIGS  =    2.900; RWIGS  =    1.535    wigner-seitz radius (au A)           
   ENMAX  =  174.982; ENMIN  =  131.236 eV                                      
   ICORE  =        3    local potential                                         
   LCOR   =        T    correct aug charges                                     
   LPAW   =        T    paw PP                                                  
   EAUG   =  368.792                                                            
   DEXC   =    -.169                                                            
   RMAX   =    3.486    core radius for proj-oper                               
   RAUG   =    1.300    factor for augmentation sphere                          
   RDEP   =    2.397    radius for radial grids                                 
   QCUT   =   -3.586; QGAM   =    7.172    optimization parameters              
                                                                                
   Description                                                                  
     l     E      TYP  RCUT    TYP  RCUT                                        
     0   .000     23  2.300                                                     
     0   .000     23  2.300                                                     
     1   .000     23  2.300                                                     
     1   .000     23  2.300                                                     
     2   .000     23  2.300                                                     
     3  -.100     23  2.300                                                     
  local pseudopotential read in
  partial core-charges read in
  atomic valenz-charges read in
  non local Contribution for L=           0  read in
    real space projection operators read in
  non local Contribution for L=           0  read in
    real space projection operators read in
  non local Contribution for L=           1  read in
    real space projection operators read in
  non local Contribution for L=           1  read in
    real space projection operators read in
  non local Contribution for L=           2  read in
    real space projection operators read in
    PAW grid and wavefunctions read in

   number of l-projection  operators is LMAX  =           5
   number of lm-projection operators is LMMAX =          13

 Optimization of the real space projectors (new method)

 maximal supplied QI-value         = 16.25
 optimisation between [QCUT,QGAM] = [ 11.54, 23.24] = [ 37.28,151.24] Ry 
 Optimized for a Real-space Cutoff    1.53 Angstroem

   l    n(q)    QCUT    max X(q) W(low)/X(q) W(high)/X(q)  e(spline) 
   2     10    11.539     4.378    0.86E-05    0.15E-04    0.46E-07
   2     10    11.539    23.237    0.11E-03    0.14E-03    0.22E-06
   0     11    11.539    17.641    0.19E-04    0.14E-05    0.18E-07
   0     11    11.539    50.908    0.43E-04    0.16E-04    0.30E-06
   1     10    11.539     6.148    0.11E-04    0.38E-05    0.26E-07
   1     10    11.539     8.345    0.44E-04    0.25E-04    0.11E-06
 Optimization of the real space projectors (new method)

 maximal supplied QI-value         = 19.84
 optimisation between [QCUT,QGAM] = [ 11.51, 23.22] = [ 37.09,150.92] Ry 
 Optimized for a Real-space Cutoff    1.21 Angstroem

   l    n(q)    QCUT    max X(q) W(low)/X(q) W(high)/X(q)  e(spline) 
   0      8    11.508     8.708    0.18E-04    0.44E-05    0.47E-08
   0      8    11.508   106.241    0.70E-04    0.15E-03    0.51E-07
   1      8    11.508     5.901    0.63E-05    0.23E-04    0.21E-07
   1      8    11.508    73.241    0.15E-03    0.36E-04    0.79E-07
 Optimization of the real space projectors (new method)

 maximal supplied QI-value         = 16.25
 optimisation between [QCUT,QGAM] = [ 11.54, 23.24] = [ 37.28,151.24] Ry 
 Optimized for a Real-space Cutoff    1.36 Angstroem

   l    n(q)    QCUT    max X(q) W(low)/X(q) W(high)/X(q)  e(spline) 
   0      9    11.539     7.090    0.13E-04    0.25E-05    0.51E-08
   0      9    11.539   101.654    0.53E-04    0.69E-04    0.12E-06
   1      9    11.539     5.276    0.20E-04    0.98E-05    0.24E-07
   1      9    11.539    81.891    0.24E-03    0.13E-04    0.15E-06
   2      9    11.539     5.599    0.30E-04    0.97E-04    0.54E-07

 ----------------------------------------------------------------------------- 
|                                                                             |
|  ADVICE TO THIS USER RUNNING 'VASP/VAMP'   (HEAR YOUR MASTER'S VOICE ...):  |
|                                                                             |
|      You enforced a specific xc-type in the INCAR file,                     |
|      a different type was found on the POTCAR file                          |
|          I HOPE YOU KNOW, WHAT YOU ARE  DOING                               |
|                                                                             |
 ----------------------------------------------------------------------------- 

 PAW_PBE Fe 06Sep2000                   :
 energy of atom  1       EATOM= -594.4687
 kinetic energy error for atom=    0.0026 (will be added to EATOM!!)
 PAW_PBE Si 05Jan2001                   :
 energy of atom  2       EATOM= -103.0669
 kinetic energy error for atom=    0.0005 (will be added to EATOM!!)
 PAW_PBE Te 08Apr2002                   :
 energy of atom  3       EATOM= -223.2721
 kinetic energy error for atom=    0.0007 (will be added to EATOM!!)


 POSCAR: Fe2 Si2 Te6                             
  positions in direct lattice
  No initial velocities read in
 exchange correlation table for  LEXCH =       42
   RHO(1)=    0.500       N(1)  =     2000
   RHO(2)=  100.500       N(2)  =     4000



--------------------------------------------------------------------------------------------------------


 ion  position               nearest neighbor table
   1  0.333  0.333  0.500-   6 2.78   5 2.78   7 2.78   8 2.78  10 2.78   9 2.78
   2  0.667  0.667  0.500-   9 2.78   8 2.78  10 2.78   5 2.78   7 2.78   6 2.78
   3  0.000  0.000  0.448-   4 2.43   8 2.63  10 2.63   9 2.63
   4  0.000  0.000  0.552-   3 2.43   5 2.63   7 2.63   6 2.63
   5  0.626  0.000  0.574-   4 2.63   1 2.78   2 2.78
   6  0.000  0.373  0.574-   4 2.63   1 2.78   2 2.78
   7  0.373  0.626  0.574-   4 2.63   1 2.78   2 2.78
   8  0.374  1.000  0.426-   3 2.63   2 2.78   1 2.78
   9  1.000  0.627  0.426-   3 2.63   2 2.78   1 2.78
  10  0.627  0.374  0.426-   3 2.63   2 2.78   1 2.78

  LATTYP: Found a hexagonal cell.
 ALAT       =     6.9077769333
 C/A-ratio  =     3.3939410937
  
  Lattice vectors:
  
 A1 = (   3.4538890000,  -5.9823100000,   0.0000000000)
 A2 = (  -6.9077770000,   0.0000000000,   0.0000000000)
 A3 = (   0.0000000000,   0.0000000000, -23.4445880000)


Analysis of symmetry for initial positions (statically):
=====================================================================
 Subroutine PRICEL returns:
 Original cell was already a primitive cell.
 

 Routine SETGRP: Setting up the symmetry group for a 
 hexagonal supercell.


 Subroutine GETGRP returns: Found  6 space group operations
 (whereof  6 operations were pure point group operations)
 out of a pool of 24 trial point group operations.


The static configuration has the point symmetry S_6 .


Analysis of symmetry for dynamics (positions and initial velocities):
=====================================================================
 Subroutine PRICEL returns:
 Original cell was already a primitive cell.
 

 Routine SETGRP: Setting up the symmetry group for a 
 hexagonal supercell.


 Subroutine GETGRP returns: Found  6 space group operations
 (whereof  6 operations were pure point group operations)
 out of a pool of 24 trial point group operations.


The dynamic configuration has the point symmetry S_6 .


Analysis of constrained symmetry for selective dynamics:
=====================================================================
 Subroutine PRICEL returns:
 Original cell was already a primitive cell.
 

 Routine SETGRP: Setting up the symmetry group for a 
 hexagonal supercell.


 Subroutine GETGRP returns: Found  6 space group operations
 (whereof  6 operations were pure point group operations)
 out of a pool of 24 trial point group operations.


The constrained configuration has the point symmetry S_6 .


Analysis of structural, dynamic, and magnetic symmetry:
=====================================================================
 Subroutine PRICEL returns:
 Original cell was already a primitive cell.
 

 Routine SETGRP: Setting up the symmetry group for a 
 hexagonal supercell.


 Subroutine GETGRP returns: Found  6 space group operations
 (whereof  6 operations were pure point group operations)
 out of a pool of 24 trial point group operations.


The magnetic configuration has the point symmetry S_6 .


 Subroutine INISYM returns: Found  6 space group operations
 (whereof  6 operations are pure point group operations),
 and found     1 'primitive' translations



 KPOINTS: Kpoints from vasprun.xml                

Automatic generation of k-mesh.
Space group operators:
 irot       det(A)        alpha          n_x          n_y          n_z        tau_x        tau_y        tau_z
    1     1.000000     0.000000     1.000000     0.000000     0.000000     0.000000     0.000000     0.000000
    2    -1.000000     0.000000     1.000000     0.000000     0.000000     0.000000     0.000000     0.000000
    3     1.000000   120.000000     0.000000     0.000000     1.000000     0.000000     0.000000     0.000000
    4    -1.000000   120.000000     0.000000     0.000000     1.000000     0.000000     0.000000     0.000000
    5     1.000000   120.000000     0.000000     0.000000    -1.000000     0.000000     0.000000     0.000000
    6    -1.000000   120.000000     0.000000     0.000000    -1.000000     0.000000     0.000000     0.000000
 
 Subroutine IBZKPT returns following result:
 ===========================================
 
 Found      5 irreducible k-points:
 
 Following reciprocal coordinates:
            Coordinates               Weight
  0.000000  0.000000  0.000000      1.000000
  0.200000  0.000000  0.000000      6.000000
  0.400000  0.000000  0.000000      6.000000
  0.400000  0.200000  0.000000      6.000000
 -0.400000  0.200000  0.000000      6.000000
 
 Following cartesian coordinates:
            Coordinates               Weight
  0.000000  0.000000  0.000000      1.000000
  0.028953 -0.016716  0.000000      6.000000
  0.057906 -0.033432  0.000000      6.000000
  0.057906  0.000000  0.000000      6.000000
 -0.057906  0.066864  0.000000      6.000000
 
 TETIRR: Found     15 inequivalent tetrahedra from      150


--------------------------------------------------------------------------------------------------------




 Dimension of arrays:
   k-points           NKPTS =      5   k-points in BZ     NKDIM =      5   number of bands    NBANDS=     48
   number of dos      NEDOS =    301   number of ions     NIONS =     10
   non local maximal  LDIM  =      6   non local SUM 2l+1 LMDIM =     18
   total plane-waves  NPLWV = 524880
   max r-space proj   IRMAX =   8238   max aug-charges    IRDMAX=  31706
   dimension x,y,z NGX =    54 NGY =   54 NGZ =  180
   dimension x,y,z NGXF=   108 NGYF=  108 NGZF=  360
   support grid    NGXF=   108 NGYF=  108 NGZF=  360
   ions per type =               2   2   6
   NGX,Y,Z   is equivalent  to a cutoff of  13.00, 13.00, 12.76 a.u.
   NGXF,Y,Z  is equivalent  to a cutoff of  25.99, 25.99, 25.53 a.u.

 SYSTEM =  unknown system                          
 POSCAR =  Fe2 Si2 Te6                             

 Startparameter for this run:
   NWRITE =      2    write-flag & timer
   PREC   = accura    normal or accurate (medium, high low for compatibility)
   ISTART =      0    job   : 0-new  1-cont  2-samecut
   ICHARG =      2    charge: 1-file 2-atom 10-const
   ISPIN  =      2    spin polarized calculation?
   LNONCOLLINEAR =      F non collinear calculations
   LSORBIT =      F    spin-orbit coupling
   INIWAV =      1    electr: 0-lowe 1-rand  2-diag
   LASPH  =      F    aspherical Exc in radial PAW
   METAGGA=      F    non-selfconsistent MetaGGA calc.

 Electronic Relaxation 1
   ENCUT  =  520.0 eV  38.22 Ry    6.18 a.u.  12.84 12.84 43.59*2*pi/ulx,y,z
   ENINI  =  520.0     initial cutoff
   ENAUG  =  511.4 eV  augmentation charge cutoff
   NELM   =    400;   NELMIN=  2; NELMDL=  0     # of ELM steps 
   EDIFF  = 0.1E-03   stopping-criterion for ELM
   LREAL  =      T    real-space projection
   NLSPLINE    = F    spline interpolate recip. space projectors
   LCOMPAT=      F    compatible to vasp.4.4
   GGA_COMPAT  = T    GGA compatible to vasp.4.4-vasp.4.6
   LMAXPAW     = -100 max onsite density
   LMAXMIX     =    2 max onsite mixed and CHGCAR
   VOSKOWN=      0    Vosko Wilk Nusair interpolation
   ROPT   =   -0.00025  -0.00025  -0.00025
 Ionic relaxation
   EDIFFG = 0.1E-02   stopping-criterion for IOM
   NSW    =     99    number of steps for IOM
   NBLOCK =      1;   KBLOCK =     99    inner block; outer block 
   IBRION =      2    ionic relax: 0-MD 1-quasi-New 2-CG
   NFREE  =      1    steps in history (QN), initial steepest desc. (CG)
   ISIF   =      3    stress and relaxation
   IWAVPR =     11    prediction:  0-non 1-charg 2-wave 3-comb
   ISYM   =      2    0-nonsym 1-usesym 2-fastsym
   LCORR  =      T    Harris-Foulkes like correction to forces

   POTIM  = 0.5000    time-step for ionic-motion
   TEIN   =    0.0    initial temperature
   TEBEG  =    0.0;   TEEND  =   0.0 temperature during run
   SMASS  =  -3.00    Nose mass-parameter (am)
   estimated Nose-frequenzy (Omega)   =  0.10E-29 period in steps =****** mass=  -0.109E-26a.u.
   SCALEE = 1.0000    scale energy and forces
   NPACO  =    256;   APACO  = 16.0  distance and # of slots for P.C.
   PSTRESS=    0.0 pullay stress

  Mass of Ions in am
   POMASS =  55.85 28.09127.60
  Ionic Valenz
   ZVAL   =   8.00  4.00  6.00
  Atomic Wigner-Seitz radii
   RWIGS  =  -1.00 -1.00 -1.00
  virtual crystal weights 
   VCA    =   1.00  1.00  1.00
   NELECT =      60.0000    total number of electrons
   NUPDOWN=      -1.0000    fix difference up-down

 DOS related values:
   EMIN   =  10.00;   EMAX   =-10.00  energy-range for DOS
   EFERMI =   0.00
   ISMEAR =    -5;   SIGMA  =   0.05  broadening in eV -4-tet -1-fermi 0-gaus

 Electronic relaxation 2 (details)
   IALGO  =     38    algorithm
   LDIAG  =      T    sub-space diagonalisation (order eigenvalues)
   LSUBROT=      F    optimize rotation matrix (better conditioning)
   TURBO    =      0    0=normal 1=particle mesh
   IRESTART =      0    0=no restart 2=restart with 2 vectors
   NREBOOT  =      0    no. of reboots
   NMIN     =      0    reboot dimension
   EREF     =   0.00    reference energy to select bands
   IMIX   =      4    mixing-type and parameters
     AMIX     =   0.40;   BMIX     =  1.00
     AMIX_MAG =   1.60;   BMIX_MAG =  1.00
     AMIN     =   0.01
     WC   =   100.;   INIMIX=   1;  MIXPRE=   1;  MAXMIX= -45

 Intra band minimization:
   WEIMIN = 0.0010     energy-eigenvalue tresh-hold
   EBREAK =  0.52E-06  absolut break condition
   DEPER  =   0.30     relativ break condition  

   TIME   =   0.40     timestep for ELM

  volume/ion in A,a.u.               =      96.88       653.80
  Fermi-wavevector in a.u.,A,eV,Ry     =   0.647702  1.223979  5.707889  0.419518
  Thomas-Fermi vector in A             =   1.716096

 Write flags
   LWAVE        =      F    write WAVECAR
   LDOWNSAMPLE  =      F    k-point downsampling of WAVECAR
   LCHARG       =      T    write CHGCAR
   LVTOT        =      F    write LOCPOT, total local potential
   LVHAR        =      F    write LOCPOT, Hartree potential only
   LELF         =      F    write electronic localiz. function (ELF)
   LORBIT       =     11    0 simple, 1 ext, 2 COOP (PROOUT), +10 PAW based schemes


 Dipole corrections
   LMONO  =      F    monopole corrections only (constant potential shift)
   LDIPOL =      F    correct potential (dipole corrections)
   IDIPOL =      0    1-x, 2-y, 3-z, 4-all directions 
   EPSILON=  1.0000000 bulk dielectric constant

 Exchange correlation treatment:
   GGA     =    BO    GGA type
   LEXCH   =    42    internal setting for exchange type
   VOSKOWN=      0    Vosko Wilk Nusair interpolation
   LHFCALC =     F    Hartree Fock is set to
   LHFONE  =     F    Hartree Fock one center treatment
   AEXX    =    0.0000 exact exchange contribution

 vdW DFT:
   LUSE_VDW   =     T    switch on vdW DFT
   Zab_VDW    =-.8491    correlation parameter
   PARAM1     =0.1833
   PARAM2     =0.2200
   PARAM3     =0.0000
   -- rVV10 --
   BPARAM     = 6.3000
   CPARAM     = 0.0093

 Linear response parameters
   LEPSILON=     F    determine dielectric tensor
   LRPA    =     F    only Hartree local field effects (RPA)
   LNABLA  =     F    use nabla operator in PAW spheres
   LVEL    =     F    velocity operator in full k-point grid
   LINTERFAST=   F  fast interpolation
   KINTER  =     0    interpolate to denser k-point grid
   CSHIFT  =0.1000    complex shift for real part using Kramers Kronig
   OMEGAMAX=  -1.0    maximum frequency
   DEG_THRESHOLD= 0.2000000E-02 threshold for treating states as degnerate
   RTIME   =   -0.100 relaxation time in fs
  (WPLASMAI=    0.000 imaginary part of plasma frequency in eV, 0.658/RTIME)
   DFIELD  = 0.0000000 0.0000000 0.0000000 field for delta impulse in time

 Orbital magnetization related:
   ORBITALMAG=     F  switch on orbital magnetization
   LCHIMAG   =     F  perturbation theory with respect to B field
   DQ        =  0.001000  dq finite difference perturbation B field
   LLRAUG    =     F  two centre corrections for induced B field



--------------------------------------------------------------------------------------------------------


 conjugate gradient relaxation of ions
   using selective dynamics as specified on POSCAR
 charge density and potential will be updated during run
 spin polarized calculation
 Variant of blocked Davidson
 Davidson routine will perform the subspace rotation
 perform sub-space diagonalisation
    after iterative eigenvector-optimisation
 modified Broyden-mixing scheme, WC =      100.0
 initial mixing is a Kerker type mixing with AMIX =  0.4000 and BMIX =      1.0000
 Hartree-type preconditioning will be used
 using additional bands           18
 real space projection scheme for non local part
 use partial core corrections
 calculate Harris-corrections to forces   (improved forces if not selfconsistent)
 use gradient corrections 
 use of overlap-Matrix (Vanderbilt PP)
 Fermi weights with tetrahedron method with Bloechl corrections


--------------------------------------------------------------------------------------------------------


  energy-cutoff  :      520.00
  volume of cell :      968.84
      direct lattice vectors                 reciprocal lattice vectors
     6.907777000 -0.000000000  0.000000000     0.144764372 -0.083579742  0.000000000
     3.453888000  5.982310000  0.000000000     0.000000000  0.167159509 -0.000000000
     0.000000000  0.000000000 23.444588000    -0.000000000  0.000000000  0.042653767

  length of vectors
     6.907777000  6.907776433 23.444588000     0.167159495  0.167159509  0.042653767



 k-points in units of 2pi/SCALE and weight: Kpoints from vasprun.xml                
   0.00000000  0.00000000  0.00000000       0.040
   0.02895287 -0.01671595  0.00000000       0.240
   0.05790575 -0.03343190  0.00000000       0.240
   0.05790575  0.00000000  0.00000000       0.240
  -0.05790575  0.06686380  0.00000000       0.240

 k-points in reciprocal lattice and weights: Kpoints from vasprun.xml                
   0.00000000  0.00000000  0.00000000       0.040
   0.20000000  0.00000000  0.00000000       0.240
   0.40000000  0.00000000  0.00000000       0.240
   0.40000000  0.20000000  0.00000000       0.240
  -0.40000000  0.20000000  0.00000000       0.240

 position of ions in fractional coordinates (direct lattice) 
   0.33333300  0.33333300  0.49992500
   0.66666700  0.66666700  0.50007500
   0.00000000  0.00000000  0.44821600
   0.00000000  0.00000000  0.55178400
   0.62635700  0.00042000  0.57375200
   0.00042000  0.37322400  0.57375200
   0.37322400  0.62635700  0.57375200
   0.37364300  0.99958000  0.42624800
   0.99958000  0.62677600  0.42624800
   0.62677600  0.37364300  0.42624800

 position of ions in cartesian coordinates  (Angst):
   3.45388488  1.99410134 11.72053566
   6.90778012  3.98820866 11.72405234
   0.00000000  0.00000000 10.50823946
   0.00000000  0.00000000 12.93634854
   4.32818511  0.00251257 13.45137925
   1.29197516  2.23274167 13.45137925
   4.74151509  3.74706174 13.45137925
   6.03347989  5.97979743  9.99320875
   9.06968984  3.74956833  9.99320875
   5.62014991  2.23524826  9.99320875



--------------------------------------------------------------------------------------------------------


 k-point  1 :   0.0000 0.0000 0.0000  plane waves:   26073
 k-point  2 :   0.2000 0.0000 0.0000  plane waves:   26070
 k-point  3 :   0.4000 0.0000 0.0000  plane waves:   26086
 k-point  4 :   0.4000 0.2000 0.0000  plane waves:   26085
 k-point  5 :  -0.4000 0.2000 0.0000  plane waves:   26115

 maximum and minimum number of plane-waves per node :     26115    26070

 maximum number of plane-waves:     26115
 maximum index in each direction: 
   IXMAX=   13   IYMAX=   12   IZMAX=   43
   IXMIN=  -13   IYMIN=  -13   IZMIN=  -43


 serial   3D FFT for wavefunctions
 parallel 3D FFT for charge:
    minimum data exchange during FFTs selected (reduces bandwidth)


 total amount of memory used by VASP MPI-rank0   128591. kBytes
=======================================================================

   base      :      30000. kBytes
   nonlr-proj:       8281. kBytes
   fftplans  :      11247. kBytes
   grid      :      66142. kBytes
   one-center:        311. kBytes
   wavefun   :      12610. kBytes

     INWAV:  cpu time    0.0000: real time    0.0004
 Broyden mixing: mesh for mixing (old mesh)
   NGX = 25   NGY = 25   NGZ = 87
  (NGX  =108   NGY  =108   NGZ  =360)
  gives a total of  54375 points

 initial charge density was supplied:
 charge density of overlapping atoms calculated
 number of electron      60.0000000 magnetization      12.0600000
 keeping initial charge density in first step


--------------------------------------------------------------------------------------------------------


 Maximum index for non-local projection operator         7925
 Maximum index for augmentation-charges         2278 (set IRDMAX)


--------------------------------------------------------------------------------------------------------


 First call to EWALD:  gamma=   0.179
 Maximum number of real-space cells 4x 4x 1
 Maximum number of reciprocal cells 2x 2x 6

    FEWALD:  cpu time    0.0000: real time    0.0015


--------------------------------------- Iteration      1(   1)  ---------------------------------------


vdW kernel read from vdw_kernel.bindat
  0.0000  0.2424  0.5071  0.7962  1.1119  1.4567  1.8333  2.2446  2.6937  3.1842
  3.7199  4.3049  4.9438  5.6415  6.4036  7.2358  8.1446  9.1372 10.2212 11.4050
 12.6979 14.1099 15.6519 17.3360 19.1751 21.1837 23.3773 25.7729 28.3892 31.2465
 34.3669 37.7748 41.4965 45.5611 50.0000

    POTLOK:  cpu time   52.1720: real time   52.7412
    SETDIJ:  cpu time    0.0520: real time    0.0501
     EDDAV:  cpu time   23.0720: real time   23.3431
 BZINTS: Fermi energy:  5.965195; 60.000000 electrons
         Band energy:  25.838709;  BLOECHL correction: -0.033945
       DOS:  cpu time    0.0040: real time    0.0066
    --------------------------------------------
      LOOP:  cpu time   75.3000: real time   76.1410

 eigenvalue-minimisations  :   960
 total energy-change (2. order) : 0.3810774E+03  (-0.1773836E+04)
 number of electron      60.0000000 magnetization      12.0600000
 augmentation part       60.0000000 magnetization      12.0600000

 Free energy of the ion-electron system (eV)
  ---------------------------------------------------
  alpha Z        PSCENC =        13.34751081
  Ewald energy   TEWEN  =      7005.02028753
  -Hartree energ DENC   =     -9487.20796187
  -exchange      EXHF   =         0.00000000
  -V(xc)+E(xc)   XCENC  =      -186.90402485
  PAW double counting   =      1650.03329327    -1386.41707516
  entropy T*S    EENTRO =         0.00000000
  eigenvalues    EBANDS =        25.83870905
  atomic energy  EATOM  =      2747.36670921
  Solvation  Ediel_sol  =         0.00000000
  ---------------------------------------------------
  free energy    TOTEN  =       381.07744799 eV

  energy without entropy =      381.07744799  energy(sigma->0) =      381.07744799


--------------------------------------------------------------------------------------------------------




--------------------------------------- Iteration      1(   2)  ---------------------------------------


     EDDAV:  cpu time   29.1880: real time   29.4680
 BZINTS: Fermi energy: -0.563595; 60.000000 electrons
         Band energy:-352.259138;  BLOECHL correction: -0.030675
       DOS:  cpu time    0.0040: real time    0.0046
    --------------------------------------------
      LOOP:  cpu time   29.1920: real time   29.4725

 eigenvalue-minimisations  :  1248
 total energy-change (2. order) :-0.3780978E+03  (-0.3580159E+03)
 number of electron      60.0000000 magnetization      12.0600000
 augmentation part       60.0000000 magnetization      12.0600000

 Free energy of the ion-electron system (eV)
  ---------------------------------------------------
  alpha Z        PSCENC =        13.34751081
  Ewald energy   TEWEN  =      7005.02028753
  -Hartree energ DENC   =     -9487.20796187
  -exchange      EXHF   =         0.00000000
  -V(xc)+E(xc)   XCENC  =      -186.90402485
  PAW double counting   =      1650.03329327    -1386.41707516
  entropy T*S    EENTRO =         0.00000000
  eigenvalues    EBANDS =      -352.25913803
  atomic energy  EATOM  =      2747.36670921
  Solvation  Ediel_sol  =         0.00000000
  ---------------------------------------------------
  free energy    TOTEN  =         2.97960091 eV

  energy without entropy =        2.97960091  energy(sigma->0) =        2.97960091


--------------------------------------------------------------------------------------------------------




--------------------------------------- Iteration      1(   3)  ---------------------------------------


     EDDAV:  cpu time   29.5920: real time   30.3171
 BZINTS: Fermi energy: -1.367415; 60.000000 electrons
         Band energy:-395.609615;  BLOECHL correction: -0.028338
       DOS:  cpu time    0.0040: real time    0.0047
    --------------------------------------------
      LOOP:  cpu time   29.5960: real time   30.3218

 eigenvalue-minimisations  :  1280
 total energy-change (2. order) :-0.4335048E+02  (-0.4251463E+02)
 number of electron      60.0000000 magnetization      12.0600000
 augmentation part       60.0000000 magnetization      12.0600000

 Free energy of the ion-electron system (eV)
  ---------------------------------------------------
  alpha Z        PSCENC =        13.34751081
  Ewald energy   TEWEN  =      7005.02028753
  -Hartree energ DENC   =     -9487.20796187
  -exchange      EXHF   =         0.00000000
  -V(xc)+E(xc)   XCENC  =      -186.90402485
  PAW double counting   =      1650.03329327    -1386.41707516
  entropy T*S    EENTRO =         0.00000000
  eigenvalues    EBANDS =      -395.60961548
  atomic energy  EATOM  =      2747.36670921
  Solvation  Ediel_sol  =         0.00000000
  ---------------------------------------------------
  free energy    TOTEN  =       -40.37087653 eV

  energy without entropy =      -40.37087653  energy(sigma->0) =      -40.37087653


--------------------------------------------------------------------------------------------------------




--------------------------------------- Iteration      1(   4)  ---------------------------------------


     EDDAV:  cpu time   31.0280: real time   31.3812
 BZINTS: Fermi energy: -1.394293; 60.000000 electrons
         Band energy:-397.395444;  BLOECHL correction: -0.029586
       DOS:  cpu time    0.0040: real time    0.0046
    --------------------------------------------
      LOOP:  cpu time   31.0320: real time   31.3858

 eigenvalue-minimisations  :  1344
 total energy-change (2. order) :-0.1785828E+01  (-0.1779989E+01)
 number of electron      60.0000000 magnetization      12.0600000
 augmentation part       60.0000000 magnetization      12.0600000

 Free energy of the ion-electron system (eV)
  ---------------------------------------------------
  alpha Z        PSCENC =        13.34751081
  Ewald energy   TEWEN  =      7005.02028753
  -Hartree energ DENC   =     -9487.20796187
  -exchange      EXHF   =         0.00000000
  -V(xc)+E(xc)   XCENC  =      -186.90402485
  PAW double counting   =      1650.03329327    -1386.41707516
  entropy T*S    EENTRO =         0.00000000
  eigenvalues    EBANDS =      -397.39544394
  atomic energy  EATOM  =      2747.36670921
  Solvation  Ediel_sol  =         0.00000000
  ---------------------------------------------------
  free energy    TOTEN  =       -42.15670500 eV

  energy without entropy =      -42.15670500  energy(sigma->0) =      -42.15670500


--------------------------------------------------------------------------------------------------------




--------------------------------------- Iteration      1(   5)  ---------------------------------------


     EDDAV:  cpu time   33.7040: real time   34.3087
 BZINTS: Fermi energy: -1.394600; 60.000000 electrons
         Band energy:-397.430227;  BLOECHL correction: -0.029630
       DOS:  cpu time    0.0040: real time    0.0053
    CHARGE:  cpu time    2.0560: real time    2.0699
    MIXING:  cpu time    0.0480: real time    0.0481
    --------------------------------------------
      LOOP:  cpu time   35.8120: real time   36.4320

 eigenvalue-minimisations  :  1472
 total energy-change (2. order) :-0.3478313E-01  (-0.3479036E-01)
 number of electron      60.0000010 magnetization      11.6967146
 augmentation part       -1.6680853 magnetization       8.1741614

 Broyden mixing:
  rms(total) = 0.19905E+01    rms(broyden)= 0.19904E+01
  rms(prec ) = 0.21528E+01
  weight for this iteration     100.00

 Free energy of the ion-electron system (eV)
  ---------------------------------------------------
  alpha Z        PSCENC =        13.34751081
  Ewald energy   TEWEN  =      7005.02028753
  -Hartree energ DENC   =     -9487.20796187
  -exchange      EXHF   =         0.00000000
  -V(xc)+E(xc)   XCENC  =      -186.90402485
  PAW double counting   =      1650.03329327    -1386.41707516
  entropy T*S    EENTRO =         0.00000000
  eigenvalues    EBANDS =      -397.43022707
  atomic energy  EATOM  =      2747.36670921
  Solvation  Ediel_sol  =         0.00000000
  ---------------------------------------------------
  free energy    TOTEN  =       -42.19148813 eV

  energy without entropy =      -42.19148813  energy(sigma->0) =      -42.19148813


--------------------------------------------------------------------------------------------------------




--------------------------------------- Iteration      1(   6)  ---------------------------------------


    POTLOK:  cpu time   52.0360: real time   52.3876
    SETDIJ:  cpu time    0.0520: real time    0.0512
     EDDAV:  cpu time   27.5960: real time   28.0279
 BZINTS: Fermi energy: -3.540709; 60.000000 electrons
         Band energy:-517.522551;  BLOECHL correction: -0.026690
       DOS:  cpu time    0.0040: real time    0.0065
    CHARGE:  cpu time    2.0400: real time    2.0441
    MIXING:  cpu time    0.0560: real time    0.0569
    --------------------------------------------
      LOOP:  cpu time   81.7840: real time   82.5742

 eigenvalue-minimisations  :  1184
 total energy-change (2. order) :-0.2939106E+02  (-0.2516463E+02)
 number of electron      60.0000017 magnetization      11.4205056
 augmentation part        7.2443665 magnetization      10.2798379

 Broyden mixing:
  rms(total) = 0.58237E+01    rms(broyden)= 0.58237E+01
  rms(prec ) = 0.61924E+01
  weight for this iteration     100.00

 eigenvalues of (default mixing * dielectric matrix)
  average eigenvalue GAMMA=   0.2186
  0.2186

 Free energy of the ion-electron system (eV)
  ---------------------------------------------------
  alpha Z        PSCENC =        13.34751081
  Ewald energy   TEWEN  =      7005.02028753
  -Hartree energ DENC   =     -9405.94121303
  -exchange      EXHF   =         0.00000000
  -V(xc)+E(xc)   XCENC  =      -185.90629213
  PAW double counting   =      1533.44571991    -1261.39271616
  entropy T*S    EENTRO =         0.00000000
  eigenvalues    EBANDS =      -517.52255090
  atomic energy  EATOM  =      2747.36670921
  Solvation  Ediel_sol  =         0.00000000
  ---------------------------------------------------
  free energy    TOTEN  =       -71.58254476 eV

  energy without entropy =      -71.58254476  energy(sigma->0) =      -71.58254476


--------------------------------------------------------------------------------------------------------




--------------------------------------- Iteration      1(   7)  ---------------------------------------


    POTLOK:  cpu time   52.2040: real time   52.3103
    SETDIJ:  cpu time    0.0520: real time    0.0499
     EDDAV:  cpu time   26.8880: real time   26.9204
 BZINTS: Fermi energy: -2.713600; 60.000000 electrons
         Band energy:-418.450347;  BLOECHL correction: -0.023862
       DOS:  cpu time    0.0040: real time    0.0065
    CHARGE:  cpu time    2.0160: real time    2.0168
    MIXING:  cpu time    0.0600: real time    0.0590
    --------------------------------------------
      LOOP:  cpu time   81.2240: real time   81.3629

 eigenvalue-minimisations  :  1136
 total energy-change (2. order) : 0.3348148E+02  (-0.4928205E+01)
 number of electron      60.0000014 magnetization      11.1167202
 augmentation part        2.3966349 magnetization      10.3295634

 Broyden mixing:
  rms(total) = 0.13768E+01    rms(broyden)= 0.13765E+01
  rms(prec ) = 0.14703E+01
  weight for this iteration     100.00

 eigenvalues of (default mixing * dielectric matrix)
  average eigenvalue GAMMA=   0.3430
  0.3430  0.3430

 Free energy of the ion-electron system (eV)
  ---------------------------------------------------
  alpha Z        PSCENC =        13.34751081
  Ewald energy   TEWEN  =      7005.02028753
  -Hartree energ DENC   =     -9461.45935605
  -exchange      EXHF   =         0.00000000
  -V(xc)+E(xc)   XCENC  =      -187.53193475
  PAW double counting   =      1635.48073793    -1371.87467084
  entropy T*S    EENTRO =         0.00000000
  eigenvalues    EBANDS =      -418.45034694
  atomic energy  EATOM  =      2747.36670921
  Solvation  Ediel_sol  =         0.00000000
  ---------------------------------------------------
  free energy    TOTEN  =       -38.10106310 eV

  energy without entropy =      -38.10106310  energy(sigma->0) =      -38.10106310


--------------------------------------------------------------------------------------------------------




--------------------------------------- Iteration      1(   8)  ---------------------------------------


    POTLOK:  cpu time   52.3080: real time   52.4314
    SETDIJ:  cpu time    0.0480: real time    0.0473
     EDDAV:  cpu time   32.5600: real time   32.7038
 BZINTS: Fermi energy: -2.391337; 60.000000 electrons
         Band energy:-410.146705;  BLOECHL correction: -0.012608
       DOS:  cpu time    0.0040: real time    0.0067
    CHARGE:  cpu time    2.0520: real time    2.0537
    MIXING:  cpu time    0.0440: real time    0.0424
    --------------------------------------------
      LOOP:  cpu time   87.0160: real time   87.2852

 eigenvalue-minimisations  :  1408
 total energy-change (2. order) : 0.2474009E+00  (-0.5597176E+00)
 number of electron      60.0000012 magnetization      10.6124236
 augmentation part        0.9271098 magnetization       8.8430998

 Broyden mixing:
  rms(total) = 0.39681E+00    rms(broyden)= 0.39664E+00
  rms(prec ) = 0.40755E+00
  weight for this iteration     100.00

 eigenvalues of (default mixing * dielectric matrix)
  average eigenvalue GAMMA=   0.5064
  0.7795  0.3699  0.3699

 Free energy of the ion-electron system (eV)
  ---------------------------------------------------
  alpha Z        PSCENC =        13.34751081
  Ewald energy   TEWEN  =      7005.02028753
  -Hartree energ DENC   =     -9468.99083494
  -exchange      EXHF   =         0.00000000
  -V(xc)+E(xc)   XCENC  =      -187.57700902
  PAW double counting   =      1654.62312609    -1391.49674674
  entropy T*S    EENTRO =         0.00000000
  eigenvalues    EBANDS =      -410.14670518
  atomic energy  EATOM  =      2747.36670921
  Solvation  Ediel_sol  =         0.00000000
  ---------------------------------------------------
  free energy    TOTEN  =       -37.85366224 eV

  energy without entropy =      -37.85366224  energy(sigma->0) =      -37.85366224


--------------------------------------------------------------------------------------------------------




--------------------------------------- Iteration      1(   9)  ---------------------------------------


    POTLOK:  cpu time   51.5160: real time   51.8618
    SETDIJ:  cpu time    0.0720: real time    0.0740
     EDDAV:  cpu time   27.5680: real time   27.6161
 BZINTS: Fermi energy: -2.336745; 60.000000 electrons
         Band energy:-408.291869;  BLOECHL correction: -0.010108
       DOS:  cpu time    0.0080: real time    0.0066
    CHARGE:  cpu time    2.0360: real time    2.0631
    MIXING:  cpu time    0.0440: real time    0.0426
    --------------------------------------------
      LOOP:  cpu time   81.2440: real time   81.6643

 eigenvalue-minimisations  :  1168
 total energy-change (2. order) :-0.2390871E+00  (-0.4723186E-01)
 number of electron      60.0000012 magnetization       9.6123863
 augmentation part        0.8931968 magnetization       7.7546016

 Broyden mixing:
  rms(total) = 0.31127E+00    rms(broyden)= 0.31125E+00
  rms(prec ) = 0.31820E+00
  weight for this iteration     100.00

 eigenvalues of (default mixing * dielectric matrix)
  average eigenvalue GAMMA=   0.7515
  0.3873  0.3873  0.8569  1.3744

 Free energy of the ion-electron system (eV)
  ---------------------------------------------------
  alpha Z        PSCENC =        13.34751081
  Ewald energy   TEWEN  =      7005.02028753
  -Hartree energ DENC   =     -9470.53481409
  -exchange      EXHF   =         0.00000000
  -V(xc)+E(xc)   XCENC  =      -187.25742890
  PAW double counting   =      1667.39857861    -1405.14172355
  entropy T*S    EENTRO =         0.00000000
  eigenvalues    EBANDS =      -408.29186900
  atomic energy  EATOM  =      2747.36670921
  Solvation  Ediel_sol  =         0.00000000
  ---------------------------------------------------
  free energy    TOTEN  =       -38.09274939 eV

  energy without entropy =      -38.09274939  energy(sigma->0) =      -38.09274939


--------------------------------------------------------------------------------------------------------




--------------------------------------- Iteration      1(  10)  ---------------------------------------


    POTLOK:  cpu time   51.8520: real time   52.1511
    SETDIJ:  cpu time    0.0480: real time    0.0472
     EDDAV:  cpu time   29.8480: real time   30.0524
 BZINTS: Fermi energy: -2.349359; 60.000000 electrons
         Band energy:-406.166658;  BLOECHL correction: -0.025811
       DOS:  cpu time    0.0040: real time    0.0067
    CHARGE:  cpu time    2.0720: real time    2.0730
    MIXING:  cpu time    0.0440: real time    0.0430
    --------------------------------------------
      LOOP:  cpu time   83.8680: real time   84.3735

 eigenvalue-minimisations  :  1296
 total energy-change (2. order) :-0.3125776E+00  (-0.3854106E-01)
 number of electron      60.0000012 magnetization       8.7850220
 augmentation part        1.3392091 magnetization       7.5852712

 Broyden mixing:
  rms(total) = 0.60823E+00    rms(broyden)= 0.60820E+00
  rms(prec ) = 0.63279E+00
  weight for this iteration     100.00

 eigenvalues of (default mixing * dielectric matrix)
  average eigenvalue GAMMA=   0.9468
  2.5613  0.4102  0.4102  0.6760  0.6760

 Free energy of the ion-electron system (eV)
  ---------------------------------------------------
  alpha Z        PSCENC =        13.34751081
  Ewald energy   TEWEN  =      7005.02028753
  -Hartree energ DENC   =     -9472.35555818
  -exchange      EXHF   =         0.00000000
  -V(xc)+E(xc)   XCENC  =      -186.85729096
  PAW double counting   =      1682.71099087    -1421.47131844
  entropy T*S    EENTRO =         0.00000000
  eigenvalues    EBANDS =      -406.16665783
  atomic energy  EATOM  =      2747.36670921
  Solvation  Ediel_sol  =         0.00000000
  ---------------------------------------------------
  free energy    TOTEN  =       -38.40532699 eV

  energy without entropy =      -38.40532699  energy(sigma->0) =      -38.40532699


--------------------------------------------------------------------------------------------------------




--------------------------------------- Iteration      1(  11)  ---------------------------------------


    POTLOK:  cpu time   51.3320: real time   51.4070
    SETDIJ:  cpu time    0.0560: real time    0.0541
     EDDAV:  cpu time   28.1040: real time   28.2961
 BZINTS: Fermi energy: -2.386451; 60.000000 electrons
         Band energy:-404.252658;  BLOECHL correction: -0.030534
       DOS:  cpu time    0.0040: real time    0.0067
    CHARGE:  cpu time    2.0040: real time    2.0785
    MIXING:  cpu time    0.0440: real time    0.0430
    --------------------------------------------
      LOOP:  cpu time   81.5440: real time   81.8854

 eigenvalue-minimisations  :  1216
 total energy-change (2. order) :-0.1933199E+00  (-0.1613787E-01)
 number of electron      60.0000013 magnetization       8.2610297
 augmentation part        1.6112088 magnetization       7.4834477

 Broyden mixing:
  rms(total) = 0.81962E+00    rms(broyden)= 0.81959E+00
  rms(prec ) = 0.85815E+00
  weight for this iteration     100.00

 eigenvalues of (default mixing * dielectric matrix)
  average eigenvalue GAMMA=   0.9441
  2.7703  0.7744  0.6671  0.6671  0.3930  0.3930

 Free energy of the ion-electron system (eV)
  ---------------------------------------------------
  alpha Z        PSCENC =        13.34751081
  Ewald energy   TEWEN  =      7005.02028753
  -Hartree energ DENC   =     -9474.32433572
  -exchange      EXHF   =         0.00000000
  -V(xc)+E(xc)   XCENC  =      -186.80480303
  PAW double counting   =      1690.36833808    -1429.31969593
  entropy T*S    EENTRO =         0.00000000
  eigenvalues    EBANDS =      -404.25265782
  atomic energy  EATOM  =      2747.36670921
  Solvation  Ediel_sol  =         0.00000000
  ---------------------------------------------------
  free energy    TOTEN  =       -38.59864687 eV

  energy without entropy =      -38.59864687  energy(sigma->0) =      -38.59864687


--------------------------------------------------------------------------------------------------------




--------------------------------------- Iteration      1(  12)  ---------------------------------------


    POTLOK:  cpu time   51.1000: real time   51.1485
    SETDIJ:  cpu time    0.0480: real time    0.0478
     EDDAV:  cpu time   27.0240: real time   27.2496
 BZINTS: Fermi energy: -2.322876; 60.000000 electrons
         Band energy:-401.643452;  BLOECHL correction: -0.029294
       DOS:  cpu time    0.0040: real time    0.0071
    CHARGE:  cpu time    2.0440: real time    2.0447
    MIXING:  cpu time    0.0480: real time    0.0492
    --------------------------------------------
      LOOP:  cpu time   80.2680: real time   80.5469

 eigenvalue-minimisations  :  1168
 total energy-change (2. order) : 0.3652712E-01  (-0.9240666E-02)
 number of electron      60.0000012 magnetization       6.6983876
 augmentation part        1.4070244 magnetization       5.9159074

 Broyden mixing:
  rms(total) = 0.59534E+00    rms(broyden)= 0.59534E+00
  rms(prec ) = 0.62346E+00
  weight for this iteration     100.00

 eigenvalues of (default mixing * dielectric matrix)
  average eigenvalue GAMMA=   1.1770
  3.5581  1.0713  1.0713  1.0295  0.3984  0.3984  0.7122

 Free energy of the ion-electron system (eV)
  ---------------------------------------------------
  alpha Z        PSCENC =        13.34751081
  Ewald energy   TEWEN  =      7005.02028753
  -Hartree energ DENC   =     -9476.94046130
  -exchange      EXHF   =         0.00000000
  -V(xc)+E(xc)   XCENC  =      -186.99232885
  PAW double counting   =      1692.93252134    -1431.65290618
  entropy T*S    EENTRO =         0.00000000
  eigenvalues    EBANDS =      -401.64345231
  atomic energy  EATOM  =      2747.36670921
  Solvation  Ediel_sol  =         0.00000000
  ---------------------------------------------------
  free energy    TOTEN  =       -38.56211975 eV

  energy without entropy =      -38.56211975  energy(sigma->0) =      -38.56211975


--------------------------------------------------------------------------------------------------------




--------------------------------------- Iteration      1(  13)  ---------------------------------------


    POTLOK:  cpu time   51.0200: real time   51.3183
    SETDIJ:  cpu time    0.0520: real time    0.0481
     EDDAV:  cpu time   31.3040: real time   31.5788
 BZINTS: Fermi energy: -2.102580; 60.000000 electrons
         Band energy:-394.503241;  BLOECHL correction: -0.026028
       DOS:  cpu time    0.0040: real time    0.0073
    CHARGE:  cpu time    1.9800: real time    2.0543
    MIXING:  cpu time    0.0520: real time    0.0518
    --------------------------------------------
      LOOP:  cpu time   84.4120: real time   85.0587

 eigenvalue-minimisations  :  1376
 total energy-change (2. order) :-0.4232656E-01  (-0.5867052E-01)
 number of electron      60.0000012 magnetization       5.8605891
 augmentation part        0.8117036 magnetization       4.9892577

 Broyden mixing:
  rms(total) = 0.14354E+00    rms(broyden)= 0.14351E+00
  rms(prec ) = 0.14529E+00
  weight for this iteration     100.00

 eigenvalues of (default mixing * dielectric matrix)
  average eigenvalue GAMMA=   1.2176
  3.9249  1.4210  1.4210  0.3981  0.3981  0.7794  0.7794  0.6188

 Free energy of the ion-electron system (eV)
  ---------------------------------------------------
  alpha Z        PSCENC =        13.34751081
  Ewald energy   TEWEN  =      7005.02028753
  -Hartree energ DENC   =     -9484.19618187
  -exchange      EXHF   =         0.00000000
  -V(xc)+E(xc)   XCENC  =      -187.34743142
  PAW double counting   =      1698.76332739    -1437.05542682
  entropy T*S    EENTRO =         0.00000000
  eigenvalues    EBANDS =      -394.50324114
  atomic energy  EATOM  =      2747.36670921
  Solvation  Ediel_sol  =         0.00000000
  ---------------------------------------------------
  free energy    TOTEN  =       -38.60444631 eV

  energy without entropy =      -38.60444631  energy(sigma->0) =      -38.60444631


--------------------------------------------------------------------------------------------------------




--------------------------------------- Iteration      1(  14)  ---------------------------------------


    POTLOK:  cpu time   50.7800: real time   51.2123
    SETDIJ:  cpu time    0.0480: real time    0.0493
     EDDAV:  cpu time   23.2080: real time   23.4980
 BZINTS: Fermi energy: -2.123185; 60.000000 electrons
         Band energy:-394.246612;  BLOECHL correction: -0.022975
       DOS:  cpu time    0.0040: real time    0.0069
    CHARGE:  cpu time    2.0400: real time    2.0468
    MIXING:  cpu time    0.0520: real time    0.0505
    --------------------------------------------
      LOOP:  cpu time   76.1320: real time   76.8637

 eigenvalue-minimisations  :   992
 total energy-change (2. order) :-0.1158156E+00  (-0.1144405E-01)
 number of electron      60.0000012 magnetization       4.0866581
 augmentation part        0.9448074 magnetization       3.4436890

 Broyden mixing:
  rms(total) = 0.15107E+00    rms(broyden)= 0.15104E+00
  rms(prec ) = 0.15560E+00
  weight for this iteration     100.00

 eigenvalues of (default mixing * dielectric matrix)
  average eigenvalue GAMMA=   1.5819
  6.7084  1.7709  1.7709  0.8679  0.8679  0.3982  0.3982  0.8280  0.6263

 Free energy of the ion-electron system (eV)
  ---------------------------------------------------
  alpha Z        PSCENC =        13.34751081
  Ewald energy   TEWEN  =      7005.02028753
  -Hartree energ DENC   =     -9484.45815493
  -exchange      EXHF   =         0.00000000
  -V(xc)+E(xc)   XCENC  =      -187.71647843
  PAW double counting   =      1696.06774466    -1434.10126833
  entropy T*S    EENTRO =         0.00000000
  eigenvalues    EBANDS =      -394.24661246
  atomic energy  EATOM  =      2747.36670921
  Solvation  Ediel_sol  =         0.00000000
  ---------------------------------------------------
  free energy    TOTEN  =       -38.72026194 eV

  energy without entropy =      -38.72026194  energy(sigma->0) =      -38.72026194


--------------------------------------------------------------------------------------------------------




--------------------------------------- Iteration      1(  15)  ---------------------------------------


    POTLOK:  cpu time   51.1800: real time   51.3095
    SETDIJ:  cpu time    0.0480: real time    0.0492
     EDDAV:  cpu time   26.6960: real time   26.8935
 BZINTS: Fermi energy: -2.048996; 60.000000 electrons
         Band energy:-390.361405;  BLOECHL correction: -0.029604
       DOS:  cpu time    0.0040: real time    0.0068
    CHARGE:  cpu time    2.0040: real time    2.0037
    MIXING:  cpu time    0.0440: real time    0.0464
    --------------------------------------------
      LOOP:  cpu time   79.9760: real time   80.3089

 eigenvalue-minimisations  :  1152
 total energy-change (2. order) :-0.1401551E+00  (-0.1073137E-01)
 number of electron      60.0000012 magnetization       3.4643777
 augmentation part        0.8837164 magnetization       3.1415465

 Broyden mixing:
  rms(total) = 0.63386E-01    rms(broyden)= 0.63179E-01
  rms(prec ) = 0.65299E-01
  weight for this iteration     100.00

 eigenvalues of (default mixing * dielectric matrix)
  average eigenvalue GAMMA=   1.9673
 10.6197  2.2469  1.9744  0.8861  0.8861  0.3982  0.3982  0.8218  0.8218  0.6193

 Free energy of the ion-electron system (eV)
  ---------------------------------------------------
  alpha Z        PSCENC =        13.34751081
  Ewald energy   TEWEN  =      7005.02028753
  -Hartree energ DENC   =     -9488.38165459
  -exchange      EXHF   =         0.00000000
  -V(xc)+E(xc)   XCENC  =      -188.19302868
  PAW double counting   =      1694.69852046    -1432.35735718
  entropy T*S    EENTRO =         0.00000000
  eigenvalues    EBANDS =      -390.36140458
  atomic energy  EATOM  =      2747.36670921
  Solvation  Ediel_sol  =         0.00000000
  ---------------------------------------------------
  free energy    TOTEN  =       -38.86041701 eV

  energy without entropy =      -38.86041701  energy(sigma->0) =      -38.86041701


--------------------------------------------------------------------------------------------------------




--------------------------------------- Iteration      1(  16)  ---------------------------------------


    POTLOK:  cpu time   50.8440: real time   51.2966
    SETDIJ:  cpu time    0.0480: real time    0.0480
     EDDAV:  cpu time   25.2760: real time   25.5498
 BZINTS: Fermi energy: -2.023279; 60.000000 electrons
         Band energy:-388.965346;  BLOECHL correction: -0.035743
       DOS:  cpu time    0.0040: real time    0.0072
    CHARGE:  cpu time    2.0000: real time    2.0024
    MIXING:  cpu time    0.0480: real time    0.0474
    --------------------------------------------
      LOOP:  cpu time   78.2200: real time   78.9514

 eigenvalue-minimisations  :  1088
 total energy-change (2. order) :-0.2422370E-01  (-0.6661009E-02)
 number of electron      60.0000012 magnetization       3.0878285
 augmentation part        0.9067560 magnetization       2.8996463

 Broyden mixing:
  rms(total) = 0.75352E-01    rms(broyden)= 0.75314E-01
  rms(prec ) = 0.78723E-01
  weight for this iteration     100.00

 eigenvalues of (default mixing * dielectric matrix)
  average eigenvalue GAMMA=   2.1081
 12.9431  2.5439  1.8535  0.3982  0.3982  0.9847  0.9847  0.8847  0.8847  0.6912
  0.6222

 Free energy of the ion-electron system (eV)
  ---------------------------------------------------
  alpha Z        PSCENC =        13.34751081
  Ewald energy   TEWEN  =      7005.02028753
  -Hartree energ DENC   =     -9489.64529160
  -exchange      EXHF   =         0.00000000
  -V(xc)+E(xc)   XCENC  =      -188.32957365
  PAW double counting   =      1695.12051572    -1432.79945292
  entropy T*S    EENTRO =         0.00000000
  eigenvalues    EBANDS =      -388.96534582
  atomic energy  EATOM  =      2747.36670921
  Solvation  Ediel_sol  =         0.00000000
  ---------------------------------------------------
  free energy    TOTEN  =       -38.88464071 eV

  energy without entropy =      -38.88464071  energy(sigma->0) =      -38.88464071


--------------------------------------------------------------------------------------------------------




--------------------------------------- Iteration      1(  17)  ---------------------------------------


    POTLOK:  cpu time   50.7520: real time   51.1057
    SETDIJ:  cpu time    0.0480: real time    0.0482
     EDDAV:  cpu time   26.6960: real time   27.1401
 BZINTS: Fermi energy: -1.981195; 60.000000 electrons
         Band energy:-387.317725;  BLOECHL correction: -0.034783
       DOS:  cpu time    0.0040: real time    0.0071
    CHARGE:  cpu time    1.8880: real time    2.0254
    MIXING:  cpu time    0.0480: real time    0.0481
    --------------------------------------------
      LOOP:  cpu time   79.4360: real time   80.3747

 eigenvalue-minimisations  :  1168
 total energy-change (2. order) : 0.7539838E-04  (-0.1878198E-02)
 number of electron      60.0000012 magnetization       2.9656941
 augmentation part        0.8526530 magnetization       2.7860740

 Broyden mixing:
  rms(total) = 0.15350E-01    rms(broyden)= 0.15306E-01
  rms(prec ) = 0.16219E-01
  weight for this iteration     100.00

 eigenvalues of (default mixing * dielectric matrix)
  average eigenvalue GAMMA=   2.1669
 14.4630  2.4334  2.1981  1.1217  1.1217  0.3982  0.3982  0.8457  0.8457  0.7859
  0.7859  0.6056

 Free energy of the ion-electron system (eV)
  ---------------------------------------------------
  alpha Z        PSCENC =        13.34751081
  Ewald energy   TEWEN  =      7005.02028753
  -Hartree energ DENC   =     -9491.24159006
  -exchange      EXHF   =         0.00000000
  -V(xc)+E(xc)   XCENC  =      -188.40037642
  PAW double counting   =      1696.90048152    -1434.55986299
  entropy T*S    EENTRO =         0.00000000
  eigenvalues    EBANDS =      -387.31772491
  atomic energy  EATOM  =      2747.36670921
  Solvation  Ediel_sol  =         0.00000000
  ---------------------------------------------------
  free energy    TOTEN  =       -38.88456531 eV

  energy without entropy =      -38.88456531  energy(sigma->0) =      -38.88456531


--------------------------------------------------------------------------------------------------------




--------------------------------------- Iteration      1(  18)  ---------------------------------------


    POTLOK:  cpu time   50.8920: real time   51.1861
    SETDIJ:  cpu time    0.0480: real time    0.0490
     EDDAV:  cpu time   27.0040: real time   27.2284
 BZINTS: Fermi energy: -1.963643; 60.000000 electrons
         Band energy:-386.631996;  BLOECHL correction: -0.034396
       DOS:  cpu time    0.0040: real time    0.0070
    CHARGE:  cpu time    1.9360: real time    2.0243
    MIXING:  cpu time    0.0560: real time    0.0561
    --------------------------------------------
      LOOP:  cpu time   79.9400: real time   80.5508

 eigenvalue-minimisations  :  1168
 total energy-change (2. order) :-0.1456393E-02  (-0.4454483E-03)
 number of electron      60.0000012 magnetization       2.9612586
 augmentation part        0.8231899 magnetization       2.7707378

 Broyden mixing:
  rms(total) = 0.22723E-01    rms(broyden)= 0.22716E-01
  rms(prec ) = 0.24839E-01
  weight for this iteration     100.00

 eigenvalues of (default mixing * dielectric matrix)
  average eigenvalue GAMMA=   2.1248
 14.7299  2.4162  2.4162  1.3024  1.3024  0.8813  0.8813  0.3982  0.3982  0.8280
  0.8280  0.6200  0.6200

 Free energy of the ion-electron system (eV)
  ---------------------------------------------------
  alpha Z        PSCENC =        13.34751081
  Ewald energy   TEWEN  =      7005.02028753
  -Hartree energ DENC   =     -9491.90516999
  -exchange      EXHF   =         0.00000000
  -V(xc)+E(xc)   XCENC  =      -188.43884989
  PAW double counting   =      1697.63502355    -1435.27953685
  entropy T*S    EENTRO =         0.00000000
  eigenvalues    EBANDS =      -386.63199608
  atomic energy  EATOM  =      2747.36670921
  Solvation  Ediel_sol  =         0.00000000
  ---------------------------------------------------
  free energy    TOTEN  =       -38.88602171 eV

  energy without entropy =      -38.88602171  energy(sigma->0) =      -38.88602171


--------------------------------------------------------------------------------------------------------




--------------------------------------- Iteration      1(  19)  ---------------------------------------


    POTLOK:  cpu time   50.6960: real time   51.0070
    SETDIJ:  cpu time    0.0600: real time    0.0598
     EDDAV:  cpu time   23.1000: real time   23.2883
 BZINTS: Fermi energy: -1.973295; 60.000000 electrons
         Band energy:-386.593381;  BLOECHL correction: -0.032986
       DOS:  cpu time    0.0040: real time    0.0071
    CHARGE:  cpu time    2.0320: real time    2.0674
    MIXING:  cpu time    0.0520: real time    0.0507
    --------------------------------------------
      LOOP:  cpu time   75.9440: real time   76.4803

 eigenvalue-minimisations  :   976
 total energy-change (2. order) : 0.1008254E-02  (-0.1054164E-03)
 number of electron      60.0000012 magnetization       2.9226437
 augmentation part        0.8489789 magnetization       2.7647094

 Broyden mixing:
  rms(total) = 0.10434E-01    rms(broyden)= 0.10424E-01
  rms(prec ) = 0.11346E-01
  weight for this iteration     100.00

 eigenvalues of (default mixing * dielectric matrix)
  average eigenvalue GAMMA=   2.0663
 14.9788  2.5248  2.5248  1.4112  1.4112  0.9054  0.9054  0.3982  0.3982  0.7059
  0.7059  0.5962  0.7311  0.7311

 Free energy of the ion-electron system (eV)
  ---------------------------------------------------
  alpha Z        PSCENC =        13.34751081
  Ewald energy   TEWEN  =      7005.02028753
  -Hartree energ DENC   =     -9491.92690114
  -exchange      EXHF   =         0.00000000
  -V(xc)+E(xc)   XCENC  =      -188.47029153
  PAW double counting   =      1697.44621617    -1435.07516382
  entropy T*S    EENTRO =         0.00000000
  eigenvalues    EBANDS =      -386.59338070
  atomic energy  EATOM  =      2747.36670921
  Solvation  Ediel_sol  =         0.00000000
  ---------------------------------------------------
  free energy    TOTEN  =       -38.88501345 eV

  energy without entropy =      -38.88501345  energy(sigma->0) =      -38.88501345


--------------------------------------------------------------------------------------------------------




--------------------------------------- Iteration      1(  20)  ---------------------------------------


    POTLOK:  cpu time   50.8320: real time   51.2008
    SETDIJ:  cpu time    0.0480: real time    0.0489
     EDDAV:  cpu time   22.6640: real time   22.9427
 BZINTS: Fermi energy: -1.970245; 60.000000 electrons
         Band energy:-386.287443;  BLOECHL correction: -0.032388
       DOS:  cpu time    0.0080: real time    0.0077
    CHARGE:  cpu time    2.0360: real time    2.0426
    MIXING:  cpu time    0.0680: real time    0.0646
    --------------------------------------------
      LOOP:  cpu time   75.6560: real time   76.3074

 eigenvalue-minimisations  :   944
 total energy-change (2. order) : 0.4456515E-03  (-0.3423704E-04)
 number of electron      60.0000012 magnetization       2.8892151
 augmentation part        0.8527101 magnetization       2.7421917

 Broyden mixing:
  rms(total) = 0.82927E-02    rms(broyden)= 0.82879E-02
  rms(prec ) = 0.93247E-02
  weight for this iteration     100.00

 eigenvalues of (default mixing * dielectric matrix)
  average eigenvalue GAMMA=   2.0793
 15.2156  2.7474  2.7474  1.5488  1.5488  1.0190  1.0190  0.3982  0.3982  0.8288
  0.8288  0.8715  0.7583  0.6192  0.6412

 Free energy of the ion-electron system (eV)
  ---------------------------------------------------
  alpha Z        PSCENC =        13.34751081
  Ewald energy   TEWEN  =      7005.02028753
  -Hartree energ DENC   =     -9492.22273878
  -exchange      EXHF   =         0.00000000
  -V(xc)+E(xc)   XCENC  =      -188.49103615
  PAW double counting   =      1697.70823050    -1435.32608765
  entropy T*S    EENTRO =         0.00000000
  eigenvalues    EBANDS =      -386.28744328
  atomic energy  EATOM  =      2747.36670921
  Solvation  Ediel_sol  =         0.00000000
  ---------------------------------------------------
  free energy    TOTEN  =       -38.88456780 eV

  energy without entropy =      -38.88456780  energy(sigma->0) =      -38.88456780


--------------------------------------------------------------------------------------------------------




--------------------------------------- Iteration      1(  21)  ---------------------------------------


    POTLOK:  cpu time   50.6880: real time   51.0495
    SETDIJ:  cpu time    0.0480: real time    0.0492
     EDDAV:  cpu time   23.2720: real time   23.5049
 BZINTS: Fermi energy: -1.966340; 60.000000 electrons
         Band energy:-385.889472;  BLOECHL correction: -0.031658
       DOS:  cpu time    0.0080: real time    0.0072
    CHARGE:  cpu time    2.0560: real time    2.0597
    MIXING:  cpu time    0.0560: real time    0.0530
    --------------------------------------------
      LOOP:  cpu time   76.1280: real time   76.7235

 eigenvalue-minimisations  :   976
 total energy-change (2. order) : 0.1441906E-03  (-0.3859265E-04)
 number of electron      60.0000012 magnetization       2.8449166
 augmentation part        0.8558036 magnetization       2.7117987

 Broyden mixing:
  rms(total) = 0.91588E-02    rms(broyden)= 0.91539E-02
  rms(prec ) = 0.10054E-01
  weight for this iteration     100.00

 eigenvalues of (default mixing * dielectric matrix)
  average eigenvalue GAMMA=   2.0799
 15.3979  2.9383  2.9383  1.9184  1.9184  1.0407  1.0407  0.3982  0.3982  0.8537
  0.8537  0.8531  0.8531  0.6398  0.6398  0.5955

 Free energy of the ion-electron system (eV)
  ---------------------------------------------------
  alpha Z        PSCENC =        13.34751081
  Ewald energy   TEWEN  =      7005.02028753
  -Hartree energ DENC   =     -9492.61250274
  -exchange      EXHF   =         0.00000000
  -V(xc)+E(xc)   XCENC  =      -188.51277452
  PAW double counting   =      1697.86045288    -1435.46463509
  entropy T*S    EENTRO =         0.00000000
  eigenvalues    EBANDS =      -385.88947170
  atomic energy  EATOM  =      2747.36670921
  Solvation  Ediel_sol  =         0.00000000
  ---------------------------------------------------
  free energy    TOTEN  =       -38.88442361 eV

  energy without entropy =      -38.88442361  energy(sigma->0) =      -38.88442361


--------------------------------------------------------------------------------------------------------




--------------------------------------- Iteration      1(  22)  ---------------------------------------


    POTLOK:  cpu time   51.0280: real time   51.1316
    SETDIJ:  cpu time    0.0480: real time    0.0483
     EDDAV:  cpu time   24.0000: real time   24.2624
 BZINTS: Fermi energy: -1.964344; 60.000000 electrons
         Band energy:-385.352032;  BLOECHL correction: -0.030344
       DOS:  cpu time    0.0080: real time    0.0071
    CHARGE:  cpu time    2.0040: real time    2.0360
    MIXING:  cpu time    0.0520: real time    0.0548
    --------------------------------------------
      LOOP:  cpu time   77.1400: real time   77.5402

 eigenvalue-minimisations  :  1024
 total energy-change (2. order) : 0.5983329E-03  (-0.6381289E-04)
 number of electron      60.0000012 magnetization       2.7282135
 augmentation part        0.8672843 magnetization       2.6237705

 Broyden mixing:
  rms(total) = 0.17683E-01    rms(broyden)= 0.17677E-01
  rms(prec ) = 0.18680E-01
  weight for this iteration     100.00

 eigenvalues of (default mixing * dielectric matrix)
  average eigenvalue GAMMA=   2.0673
 15.6202  3.2518  3.1902  2.0810  2.0810  1.0894  1.0894  0.8709  0.8709  0.3982
  0.3982  0.8061  0.8061  0.6199  0.6199  0.6753  0.6753

 Free energy of the ion-electron system (eV)
  ---------------------------------------------------
  alpha Z        PSCENC =        13.34751081
  Ewald energy   TEWEN  =      7005.02028753
  -Hartree energ DENC   =     -9493.14734515
  -exchange      EXHF   =         0.00000000
  -V(xc)+E(xc)   XCENC  =      -188.54360093
  PAW double counting   =      1697.84282773    -1435.41818219
  entropy T*S    EENTRO =         0.00000000
  eigenvalues    EBANDS =      -385.35203228
  atomic energy  EATOM  =      2747.36670921
  Solvation  Ediel_sol  =         0.00000000
  ---------------------------------------------------
  free energy    TOTEN  =       -38.88382528 eV

  energy without entropy =      -38.88382528  energy(sigma->0) =      -38.88382528


--------------------------------------------------------------------------------------------------------




--------------------------------------- Iteration      1(  23)  ---------------------------------------


    POTLOK:  cpu time   50.8360: real time   51.1659
    SETDIJ:  cpu time    0.0480: real time    0.0487
     EDDAV:  cpu time   25.2560: real time   25.5726
 BZINTS: Fermi energy: -1.948059; 60.000000 electrons
         Band energy:-384.041362;  BLOECHL correction: -0.028509
       DOS:  cpu time    0.0040: real time    0.0069
    CHARGE:  cpu time    2.0360: real time    2.0564
    MIXING:  cpu time    0.0680: real time    0.0665
    --------------------------------------------
      LOOP:  cpu time   78.2480: real time   78.9170

 eigenvalue-minimisations  :  1088
 total energy-change (2. order) : 0.1360039E-02  (-0.2565900E-03)
 number of electron      60.0000012 magnetization       2.6104675
 augmentation part        0.8628745 magnetization       2.5425556

 Broyden mixing:
  rms(total) = 0.11904E-01    rms(broyden)= 0.11871E-01
  rms(prec ) = 0.12476E-01
  weight for this iteration     100.00

 eigenvalues of (default mixing * dielectric matrix)
  average eigenvalue GAMMA=   2.0088
 15.7412  3.6994  3.0741  2.1239  2.1239  1.0959  1.0959  0.8659  0.8659  0.3982
  0.3982  0.8088  0.8088  0.6867  0.6867  0.6187  0.6187  0.4473

 Free energy of the ion-electron system (eV)
  ---------------------------------------------------
  alpha Z        PSCENC =        13.34751081
  Ewald energy   TEWEN  =      7005.02028753
  -Hartree energ DENC   =     -9494.45934218
  -exchange      EXHF   =         0.00000000
  -V(xc)+E(xc)   XCENC  =      -188.59788427
  PAW double counting   =      1698.20661254    -1435.72499730
  entropy T*S    EENTRO =         0.00000000
  eigenvalues    EBANDS =      -384.04136159
  atomic energy  EATOM  =      2747.36670921
  Solvation  Ediel_sol  =         0.00000000
  ---------------------------------------------------
  free energy    TOTEN  =       -38.88246524 eV

  energy without entropy =      -38.88246524  energy(sigma->0) =      -38.88246524


--------------------------------------------------------------------------------------------------------




--------------------------------------- Iteration      1(  24)  ---------------------------------------


    POTLOK:  cpu time   51.0360: real time   51.3054
    SETDIJ:  cpu time    0.0480: real time    0.0487
     EDDAV:  cpu time   28.1200: real time   28.4649
 BZINTS: Fermi energy: -1.933784; 60.000000 electrons
         Band energy:-382.784835;  BLOECHL correction: -0.026524
       DOS:  cpu time    0.0040: real time    0.0070
    CHARGE:  cpu time    1.9400: real time    2.0431
    MIXING:  cpu time    0.0600: real time    0.0621
    --------------------------------------------
      LOOP:  cpu time   81.2080: real time   81.9313

 eigenvalue-minimisations  :  1232
 total energy-change (2. order) : 0.1776435E-02  (-0.2913911E-03)
 number of electron      60.0000012 magnetization       2.4932522
 augmentation part        0.8592520 magnetization       2.4586634

 Broyden mixing:
  rms(total) = 0.82020E-02    rms(broyden)= 0.81463E-02
  rms(prec ) = 0.84700E-02
  weight for this iteration     100.00

 eigenvalues of (default mixing * dielectric matrix)
  average eigenvalue GAMMA=   2.0584
[...]
     34      -0.1782      0.00000
     35       0.0082      0.00000
     36       0.4929      0.00000
     37       0.7275      0.00000
     38       1.5147      0.00000
     39       1.5813      0.00000
     40       2.1638      0.00000
     41       2.3505      0.00000
     42       2.3861      0.00000
     43       2.6729      0.00000
     44       2.9767      0.00000
     45       3.0649      0.00000
     46       3.5434      0.00000
     47       3.7392      0.00000
     48       4.0191      0.00000

 k-point     5 :      -0.4000    0.2000    0.0000
  band No.  band energies     occupation 
      1     -13.7960      1.00000
      2     -13.5429      1.00000
      3     -13.1217      1.00000
      4     -12.9133      1.00000
      5     -12.7318      1.00000
      6     -12.5755      1.00000
      7      -9.5541      1.00000
      8      -7.9480      1.00000
      9      -6.4686      1.00000
     10      -5.9689      1.00000
     11      -5.8989      1.00000
     12      -5.4225      1.00000
     13      -5.1200      1.00000
     14      -4.8545      1.00000
     15      -4.5684      1.00000
     16      -4.2991      1.00000
     17      -4.2494      1.00000
     18      -4.0539      1.00000
     19      -3.9921      1.00000
     20      -3.7329      1.00000
     21      -3.6297      1.00000
     22      -3.0939      1.00000
     23      -2.9554      1.00000
     24      -2.7997      1.00000
     25      -2.5944      1.00000
     26      -2.2531      1.00000
     27      -1.9241      1.00000
     28      -1.8259      1.00000
     29      -1.6898      1.00000
     30      -1.4036      0.00000
     31      -1.3748      0.00000
     32      -0.5511      0.00000
     33      -0.4569      0.00000
     34      -0.2362      0.00000
     35       0.0815      0.00000
     36       0.0944      0.00000
     37       0.6565      0.00000
     38       0.9953      0.00000
     39       1.4347      0.00000
     40       1.8336      0.00000
     41       2.0651      0.00000
     42       2.3673      0.00000
     43       3.1372      0.00000
     44       3.1786      0.00000
     45       3.2671      0.00000
     46       3.3614      0.00000
     47       3.4773      0.00000
     48       4.0249      0.00000


--------------------------------------------------------------------------------------------------------


 soft charge-density along one line, spin component           1
         0         1         2         3         4         5         6         7         8         9
 total charge-density along one line

 soft charge-density along one line, spin component           2
         0         1         2         3         4         5         6         7         8         9
 total charge-density along one line

 pseudopotential strength for first ion, spin component:           1
 -9.715  -0.099  -0.000   0.000   0.000   0.538   0.029   0.000
 -0.099  -9.978   0.000  -0.000   0.000   0.029   0.616  -0.000
 -0.000   0.000 -10.484   0.000   0.000   0.000  -0.000   0.761
  0.000  -0.000   0.000  -9.978   0.099  -0.000   0.000  -0.000
  0.000   0.000   0.000   0.099  -9.715  -0.000  -0.000  -0.000
  0.538   0.029   0.000  -0.000  -0.000   0.580  -0.009  -0.000
  0.029   0.616  -0.000   0.000  -0.000  -0.009   0.557   0.000
  0.000  -0.000   0.761  -0.000  -0.000  -0.000   0.000   0.516
 -0.000   0.000  -0.000   0.616  -0.029   0.000  -0.000   0.000
 -0.000  -0.000  -0.000  -0.029   0.538   0.000   0.000   0.000
  0.000  -0.000   0.088  -0.000   0.000  -0.000  -0.000  -0.022
 -0.000   0.000  -0.009   0.000  -0.000   0.000  -0.000   0.002
 -0.000   0.000   0.000  -0.000   0.001  -0.000  -0.000  -0.000
 -0.000  -0.000   0.000  -0.000   0.000  -0.000   0.000  -0.000
  0.001  -0.000   0.000   0.000  -0.000   0.000  -0.000  -0.000
 -0.000  -0.000  -0.000   0.000  -0.001   0.000   0.000   0.000
  0.000   0.000  -0.000   0.000  -0.000  -0.000  -0.000   0.000
 -0.001   0.000  -0.000  -0.000   0.000   0.000  -0.000   0.000
 pseudopotential strength for first ion, spin component:           2
 -9.073  -0.026  -0.000   0.000  -0.000   0.346   0.008   0.000
 -0.026  -9.389   0.000  -0.000   0.000   0.008   0.434  -0.000
 -0.000   0.000  -9.013   0.000   0.000   0.000  -0.000   0.332
  0.000  -0.000   0.000  -9.389   0.026  -0.000   0.000  -0.000
 -0.000   0.000   0.000   0.026  -9.073   0.000  -0.000  -0.000
  0.346   0.008   0.000  -0.000   0.000   0.638  -0.004  -0.000
  0.008   0.434  -0.000   0.000  -0.000  -0.004   0.613   0.000
  0.000  -0.000   0.332  -0.000  -0.000  -0.000   0.000   0.639
 -0.000   0.000  -0.000   0.434  -0.008   0.000  -0.000   0.000
  0.000  -0.000  -0.000  -0.008   0.346  -0.000   0.000   0.000
  0.000  -0.000   0.007  -0.000   0.000  -0.000  -0.000  -0.006
 -0.000   0.000  -0.002   0.000  -0.000   0.000  -0.000   0.001
  0.000   0.000   0.000  -0.000   0.002  -0.000  -0.000  -0.000
 -0.000  -0.000   0.000  -0.000  -0.000  -0.000   0.000  -0.000
  0.002  -0.000   0.000   0.000  -0.000  -0.000  -0.000  -0.000
 -0.000  -0.000  -0.000   0.000  -0.002   0.000   0.000   0.000
  0.000   0.000  -0.000   0.000   0.000  -0.000  -0.000   0.000
 -0.002   0.000  -0.000  -0.000   0.000   0.000  -0.000   0.000
 total augmentation occupancy for first ion, spin component:           1
  1.536  -0.337   0.000   0.000  -0.000   0.125   0.167   0.000  -0.000   0.000   0.000   0.000   0.000   0.000   0.006  -0.000
 -0.337   1.439  -0.000  -0.000   0.000   0.127   0.196   0.000   0.000  -0.000  -0.000  -0.000   0.000   0.000   0.007   0.000
  0.000  -0.000   1.108  -0.000  -0.000   0.000   0.000  -0.049   0.000  -0.000   0.030   0.060  -0.000   0.000   0.000  -0.000
  0.000  -0.000  -0.000   1.439   0.337  -0.000  -0.000   0.000   0.196  -0.127  -0.000  -0.000  -0.007   0.000   0.000   0.000
 -0.000   0.000  -0.000   0.337   1.536  -0.000  -0.000  -0.000  -0.167   0.125  -0.000  -0.000   0.006  -0.000  -0.000   0.001
  0.125   0.127   0.000  -0.000  -0.000   0.084   0.046   0.000  -0.000  -0.000   0.000  -0.000  -0.000   0.000   0.013   0.000
  0.167   0.196   0.000  -0.000  -0.000   0.046   0.131   0.000  -0.000  -0.000  -0.000   0.000   0.000  -0.000  -0.003  -0.000
  0.000   0.000  -0.049   0.000  -0.000   0.000   0.000   0.081   0.000  -0.000   0.029  -0.017  -0.000   0.001   0.000   0.000
 -0.000   0.000   0.000   0.196  -0.167  -0.000  -0.000   0.000   0.131  -0.046   0.000   0.000   0.003  -0.000   0.000  -0.000
  0.000  -0.000  -0.000  -0.127   0.125  -0.000  -0.000  -0.000  -0.046   0.084  -0.000   0.000   0.013  -0.000   0.000  -0.002
  0.000  -0.000   0.030  -0.000  -0.000   0.000   0.000   0.029   0.000  -0.000   1.058  -0.231   0.000   0.000   0.000   0.000
  0.000  -0.000   0.060  -0.000  -0.000  -0.000   0.000  -0.017   0.000   0.000  -0.231   0.097   0.000  -0.000   0.000  -0.000
  0.000   0.000  -0.000  -0.007   0.006  -0.000   0.000  -0.000   0.003   0.013   0.000   0.000   0.171   0.000  -0.000  -0.010
  0.000   0.000   0.000  -0.000  -0.000   0.000  -0.000   0.001  -0.000  -0.000   0.000  -0.000   0.000   0.178  -0.000  -0.000
  0.006   0.007   0.000   0.000  -0.000   0.013  -0.003   0.000   0.000   0.000   0.000   0.000  -0.000  -0.000   0.171   0.000
 -0.000   0.000  -0.000   0.000   0.001   0.000  -0.000   0.000  -0.000  -0.002   0.000  -0.000  -0.010  -0.000   0.000   0.001
  0.000   0.000   0.000   0.000  -0.000  -0.000   0.000  -0.000   0.000   0.000  -0.000   0.000  -0.000  -0.010   0.000   0.000
  0.001  -0.000   0.000   0.000   0.000  -0.002   0.000  -0.000  -0.000  -0.000   0.000  -0.000  -0.000   0.000  -0.010  -0.000
 total augmentation occupancy for first ion, spin component:           2
  0.114   0.055   0.000   0.000  -0.000  -0.054  -0.002  -0.000  -0.000   0.000  -0.000   0.000   0.000  -0.000   0.006   0.000
  0.055   0.069   0.000  -0.000   0.000   0.010  -0.050   0.000   0.000  -0.000   0.000  -0.000   0.000   0.000  -0.002   0.000
  0.000   0.000   0.820   0.000  -0.000  -0.000  -0.000  -0.158  -0.000   0.000  -0.012   0.063  -0.000  -0.000   0.000  -0.000
  0.000  -0.000   0.000   0.069  -0.055  -0.000  -0.000   0.000  -0.050  -0.010   0.000  -0.000   0.002  -0.000   0.000  -0.000
 -0.000   0.000  -0.000  -0.055   0.114  -0.000  -0.000   0.000   0.002  -0.054   0.000  -0.000   0.006   0.000  -0.000   0.000
 -0.054   0.010  -0.000  -0.000  -0.000  -0.010  -0.015   0.000   0.000   0.000   0.000  -0.000  -0.000   0.000  -0.000  -0.000
 -0.002  -0.050  -0.000  -0.000  -0.000  -0.015  -0.019  -0.000   0.000   0.000  -0.000  -0.000   0.000  -0.000   0.000  -0.000
 -0.000   0.000  -0.158   0.000   0.000   0.000  -0.000   0.022  -0.000  -0.000   0.010  -0.009   0.000   0.000  -0.000  -0.000
 -0.000   0.000  -0.000  -0.050   0.002   0.000   0.000  -0.000  -0.019   0.015  -0.000   0.000  -0.000  -0.000   0.000   0.000
  0.000  -0.000   0.000  -0.010  -0.054   0.000   0.000  -0.000   0.015  -0.010  -0.000   0.000  -0.000  -0.000   0.000   0.000
 -0.000   0.000  -0.012   0.000   0.000   0.000  -0.000   0.010  -0.000  -0.000   0.053   0.033   0.000   0.000   0.000   0.000
  0.000  -0.000   0.063  -0.000  -0.000  -0.000   0.000  -0.009   0.000   0.000   0.033  -0.011   0.000   0.000   0.000   0.000
  0.000   0.000  -0.000   0.002   0.006  -0.000   0.000   0.000  -0.000  -0.000   0.000   0.000   0.008   0.000  -0.000   0.001
 -0.000   0.000  -0.000   0.000   0.000   0.000  -0.000   0.000  -0.000  -0.000   0.000   0.000  -0.000   0.008  -0.000   0.000
  0.006  -0.002   0.000   0.000  -0.000  -0.000   0.000  -0.000   0.000   0.000   0.000   0.000  -0.000  -0.000   0.008  -0.000
  0.000   0.000  -0.000  -0.000   0.000  -0.000  -0.000  -0.000   0.000   0.000   0.000   0.000   0.001   0.000  -0.000  -0.000
  0.000   0.000   0.000  -0.000  -0.000  -0.000  -0.000  -0.000  -0.000   0.000   0.000  -0.000   0.000   0.001  -0.000  -0.000
  0.000   0.000   0.000   0.000  -0.000   0.000  -0.000   0.000  -0.000   0.000   0.000   0.000   0.000  -0.000   0.001   0.000


------------------------ aborting loop because EDIFF is reached ----------------------------------------





 total charge     

# of ion       s       p       d       tot
------------------------------------------
    1        0.358   0.418   6.343   7.119
    2        0.358   0.418   6.343   7.119
    3        0.783   0.858   0.000   1.641
    4        0.783   0.858   0.000   1.641
    5        1.392   1.952   0.047   3.390
    6        1.386   1.961   0.048   3.396
    7        1.391   1.953   0.048   3.392
    8        1.392   1.952   0.047   3.390
    9        1.386   1.961   0.048   3.396
   10        1.391   1.953   0.048   3.392
--------------------------------------------------
tot         10.620  14.284  12.973  37.876



 magnetization (x)

# of ion       s       p       d       tot
------------------------------------------
    1        0.012   0.014   1.167   1.193
    2        0.012   0.014   1.167   1.193
    3       -0.003  -0.000   0.000  -0.003
    4       -0.003  -0.000   0.000  -0.003
    5       -0.001  -0.051  -0.001  -0.053
    6       -0.002  -0.031  -0.001  -0.034
    7       -0.001  -0.047  -0.001  -0.049
    8       -0.001  -0.051  -0.001  -0.053
    9       -0.002  -0.031  -0.001  -0.034
   10       -0.001  -0.047  -0.001  -0.049
--------------------------------------------------
tot          0.008  -0.230   2.328   2.107

    CHARGE:  cpu time    2.0520: real time    2.0707
    FORLOC:  cpu time    0.0560: real time    0.0564
    FORNL :  cpu time    6.5440: real time    6.6738
    STRESS:  cpu time   19.8480: real time   19.9809
    FORCOR:  cpu time   51.2280: real time   51.4471
    FORHAR:  cpu time    0.3320: real time    0.3307
    MIXING:  cpu time    0.0400: real time    0.0409
    OFIELD:  cpu time    0.0000: real time    0.0001

  FORCE on cell =-STRESS in cart. coord.  units (eV):
  Direction    XX          YY          ZZ          XY          YZ          ZX
  --------------------------------------------------------------------------------------
  Alpha Z    15.28198    15.28198    15.28198
  Ewald    8194.88725  8194.88492 -9923.93760    -0.00171    -0.00051    -0.00094
  Hartree  8656.09261  8656.09334 -8334.85883    -0.00019     0.00007     0.00012
  E(xc)    -248.78701  -248.78703  -247.35789     0.00006     0.00003     0.00001
  Local  -17718.24851-17718.24780 17371.67043     0.00160     0.00033     0.00062
  n-local   682.92910   682.31956   696.78585    -0.16321     1.24036     1.43451
  augment   -91.12150   -91.12133  -104.27252     0.00002     0.00002     0.00004
  Kinetic   511.16963   507.52715   526.72828    -2.71563     0.98195     1.31125
  Fock        0.00000     0.00000     0.00000     0.00000     0.00000     0.00000
  -------------------------------------------------------------------------------------
  Total       0.07717     0.07717     0.03969     0.00000     0.00000     0.00000
  in kB       0.14612     0.14612     0.07515     0.00000     0.00000     0.00000
  external pressure =        0.12 kB  Pullay stress =        0.00 kB


 VOLUME and BASIS-vectors are now :
 -----------------------------------------------------------------------------
  energy-cutoff  :      520.00
  volume of cell :      846.20
      direct lattice vectors                 reciprocal lattice vectors
     6.752266403 -0.000000245 -0.000000000     0.148098419 -0.085504662  0.000000000
     3.376132950  5.847633777 -0.000000000     0.000000006  0.171009338 -0.000000000
    -0.000000000  0.000000000 21.430917248     0.000000000 -0.000000000  0.046661559

  length of vectors
     6.752266403  6.752265878 21.430917248     0.171009324  0.171009338  0.046661559


 FORCES acting on ions
    electron-ion (+dipol)            ewald-force                    non-local-force                 convergence-correction
 -----------------------------------------------------------------------------------------------
   0.216E-03 0.121E-03 0.118E+01   0.521E-03 0.313E-03 -.119E+01   0.264E-18 0.651E-18 0.108E-01   0.457E-08 0.256E-07 -.428E-04
   -.216E-03 -.121E-03 -.118E+01   -.521E-03 -.313E-03 0.119E+01   0.278E-18 -.651E-18 -.108E-01   -.457E-08 -.256E-07 0.428E-04
   -.315E-04 -.249E-04 0.189E+03   -.150E-03 -.829E-04 -.184E+03   -.177E-16 -.211E-16 -.474E+01   0.126E-08 0.189E-08 -.262E-02
   0.315E-04 0.249E-04 -.189E+03   0.150E-03 0.829E-04 0.184E+03   0.212E-16 0.211E-16 0.474E+01   -.126E-08 -.189E-08 0.262E-02
   -.220E+02 0.991E-01 -.390E+03   0.178E+02 -.911E-01 0.395E+03   0.399E+01 -.181E-01 -.481E+01   0.212E-02 -.327E-05 0.700E-02
   0.111E+02 0.190E+02 -.390E+03   -.900E+01 -.154E+02 0.395E+03   -.201E+01 -.345E+01 -.481E+01   -.106E-02 -.183E-02 0.700E-02
   0.109E+02 -.191E+02 -.390E+03   -.884E+01 0.155E+02 0.395E+03   -.198E+01 0.346E+01 -.481E+01   -.106E-02 0.183E-02 0.700E-02
   0.220E+02 -.991E-01 0.390E+03   -.178E+02 0.911E-01 -.395E+03   -.399E+01 0.181E-01 0.481E+01   -.212E-02 0.327E-05 -.700E-02
   -.111E+02 -.190E+02 0.390E+03   0.900E+01 0.154E+02 -.395E+03   0.201E+01 0.345E+01 0.481E+01   0.106E-02 0.183E-02 -.700E-02
   -.109E+02 0.191E+02 0.390E+03   0.884E+01 -.155E+02 -.395E+03   0.198E+01 -.346E+01 0.481E+01   0.106E-02 -.183E-02 -.700E-02
 -----------------------------------------------------------------------------------------------
   -.268E-09 -.337E-09 0.664E-11   0.711E-14 0.355E-14 -.568E-13   0.000E+00 0.000E+00 -.178E-14   0.118E-12 0.175E-12 0.620E-11


 POSITION                                       TOTAL-FORCE (eV/Angst)
 -----------------------------------------------------------------------------------
      3.37613      1.94921     10.71290        -0.000000     -0.000000     -0.002232
      6.75227      3.89842     10.71802        -0.000000     -0.000000      0.002232
     -0.00000      0.00000      9.56860        -0.000000     -0.000000      0.028768
     -0.00000      0.00000     11.86231        -0.000000     -0.000000     -0.028768
      4.23075      0.00246     12.29603        -0.146645     -0.009557      0.010473
      1.26289      2.18248     12.29603         0.065046      0.131777      0.010473
      4.63477      3.66271     12.29603         0.081599     -0.122220      0.010473
      5.89765      5.84518      9.13489         0.146645      0.009557     -0.010473
      8.86551      3.66516      9.13489        -0.065046     -0.131777     -0.010473
      5.49363      2.18493      9.13489        -0.081599      0.122220     -0.010473
 -----------------------------------------------------------------------------------
    total drift:                               -0.000000     -0.000000      0.000000


--------------------------------------------------------------------------------------------------------



  FREE ENERGIE OF THE ION-ELECTRON SYSTEM (eV)
  ---------------------------------------------------
  free  energy   TOTEN  =       -39.57002201 eV

  energy  without entropy=      -39.57002201  energy(sigma->0) =      -39.57002201

 d Force = 0.2218813E-05[ 0.218E-05, 0.226E-05]  d Energy = 0.7387566E-04-0.717E-04
 d Force =-0.1423908E-01[-0.142E-01,-0.142E-01]  d Ewald  = 0.1318381E+01-0.133E+01


--------------------------------------------------------------------------------------------------------


    POTLOK:  cpu time   51.3680: real time   51.5752


--------------------------------------------------------------------------------------------------------




--------------------------------------------------------------------------------------------------------


  
 reached required accuracy - stopping structural energy minimisation
     LOOP+:  cpu time  425.1120: real time  428.0917
    4ORBIT:  cpu time    0.0000: real time    0.0000



 total charge     

# of ion       s       p       d       tot
------------------------------------------
    1        0.358   0.418   6.343   7.119
    2        0.358   0.418   6.343   7.119
    3        0.783   0.858   0.000   1.641
    4        0.783   0.858   0.000   1.641
    5        1.392   1.952   0.047   3.390
    6        1.386   1.961   0.048   3.396
    7        1.391   1.953   0.048   3.392
    8        1.392   1.952   0.047   3.390
    9        1.386   1.961   0.048   3.396
   10        1.391   1.953   0.048   3.392
--------------------------------------------------
tot         10.620  14.284  12.973  37.876



 magnetization (x)

# of ion       s       p       d       tot
------------------------------------------
    1        0.012   0.014   1.167   1.193
    2        0.012   0.014   1.167   1.193
    3       -0.003  -0.000   0.000  -0.003
    4       -0.003  -0.000   0.000  -0.003
    5       -0.001  -0.051  -0.001  -0.053
    6       -0.002  -0.031  -0.001  -0.034
    7       -0.001  -0.047  -0.001  -0.049
    8       -0.001  -0.051  -0.001  -0.053
    9       -0.002  -0.031  -0.001  -0.034
   10       -0.001  -0.047  -0.001  -0.049
--------------------------------------------------
tot          0.008  -0.230   2.328   2.107

 BZINTS: Fermi energy: -1.661260; 60.000000 electrons
         Band energy:-365.915497;  BLOECHL correction:  0.000000

 total amount of memory used by VASP MPI-rank0   129855. kBytes
=======================================================================

   base      :      30000. kBytes
   nonlr-proj:       9545. kBytes
   fftplans  :      11247. kBytes
   grid      :      66142. kBytes
   one-center:        311. kBytes
   wavefun   :      12610. kBytes

  
  
 General timing and accounting informations for this job:
 ========================================================
  
                  Total CPU time used (sec):    12062.444
                            User time (sec):    11766.532
                          System time (sec):      295.912
                         Elapsed time (sec):    12161.875
  
                   Maximum memory used (kb):      383008.
                   Average memory used (kb):           0.
  
                          Minor page faults:     10888282
                          Major page faults:            7
                 Voluntary context switches:         1083
