       N       E                     dE             d eps       ncg     rms          rms(c)
DAV:   1     0.380483790081E+03    0.38048E+03   -0.16415E+04   960   0.829E+02
DAV:   2     0.794839662967E+01   -0.37254E+03   -0.34762E+03  1168   0.162E+02
DAV:   3    -0.415199542584E+02   -0.49468E+02   -0.48154E+02  1296   0.673E+01
DAV:   4    -0.440558730018E+02   -0.25359E+01   -0.25090E+01  1424   0.194E+01
DAV:   5    -0.441094571223E+02   -0.53584E-01   -0.53690E-01  1392   0.285E+00    0.147E+01
DAV:   6    -0.483517202569E+02   -0.42423E+01   -0.26109E+01  1488   0.471E+01    0.254E+01
DAV:   7    -0.421508319718E+02    0.62009E+01   -0.65694E+01  1328   0.732E+01    0.916E+00
DAV:   8    -0.421421029383E+02    0.87290E-02   -0.41110E+00  1184   0.104E+01    0.567E+00
DAV:   9    -0.425741317006E+02   -0.43203E+00   -0.22319E+00  1248   0.107E+01    0.332E+00
DAV:  10    -0.430285940543E+02   -0.45446E+00   -0.86473E-01  1232   0.717E+00    0.343E+00
DAV:  11    -0.431537184599E+02   -0.12512E+00   -0.67292E-01  1216   0.662E+00    0.285E+00
DAV:  12    -0.434443853507E+02   -0.29067E+00   -0.31906E+00  1312   0.710E+00    0.194E+00
DAV:  13    -0.432902221084E+02    0.15416E+00   -0.20692E+01  1072   0.181E+01    0.140E+00
DAV:  14    -0.434898254092E+02   -0.19960E+00   -0.46343E-01  1200   0.265E+00    0.694E-01
DAV:  15    -0.435276712152E+02   -0.37846E-01   -0.33484E-02  1136   0.945E-01    0.437E-01
DAV:  16    -0.435449161949E+02   -0.17245E-01   -0.12062E-02  1056   0.567E-01    0.184E-01
DAV:  17    -0.435540067871E+02   -0.90906E-02   -0.51129E-03   992   0.420E-01    0.957E-02
DAV:  18    -0.435571168168E+02   -0.31100E-02   -0.91210E-04  1024   0.164E-01    0.563E-02
DAV:  19    -0.435590963258E+02   -0.19795E-02   -0.45819E-04   976   0.114E-01    0.332E-02
DAV:  20    -0.435602130621E+02   -0.11167E-02   -0.40222E-04   896   0.108E-01    0.188E-02
DAV:  21    -0.435605201795E+02   -0.30712E-03   -0.33934E-04   896   0.105E-01    0.140E-02
DAV:  22    -0.435604887599E+02    0.31420E-04   -0.42458E-04   912   0.913E-02
   1 F= -.43560489E+02 E0= -.43560489E+02  d E =-.435605E+02  mag=     5.5370
       N       E                     dE             d eps       ncg     rms          rms(c)
DAV:   1    -0.443220363654E+02   -0.76152E+00   -0.17434E+01  1232   0.243E+01    0.495E+00
DAV:   2    -0.442198508738E+02    0.10219E+00   -0.26919E+00  1296   0.156E+01    0.486E+00
DAV:   3    -0.438939799661E+02    0.32587E+00   -0.23359E+00  1360   0.169E+01    0.278E+00
DAV:   4    -0.437245570943E+02    0.16942E+00   -0.47693E-01  1344   0.545E+00    0.520E-01
DAV:   5    -0.437138938587E+02    0.10663E-01   -0.43994E-02  1136   0.733E-01    0.218E-01
DAV:   6    -0.437137858875E+02    0.10797E-03   -0.39232E-03  1232   0.331E-01    0.115E-01
DAV:   7    -0.437149187363E+02   -0.11328E-02   -0.15473E-03  1184   0.329E-01    0.107E-01
DAV:   8    -0.437158113278E+02   -0.89259E-03   -0.12680E-03  1168   0.384E-01    0.779E-02
DAV:   9    -0.437171694979E+02   -0.13582E-02   -0.87048E-04  1040   0.214E-01    0.398E-02
DAV:  10    -0.437190924093E+02   -0.19229E-02   -0.99513E-04  1024   0.107E-01    0.289E-02
DAV:  11    -0.437205039758E+02   -0.14116E-02   -0.12343E-03  1040   0.976E-02    0.194E-02
DAV:  12    -0.437210238742E+02   -0.51990E-03   -0.70622E-04  1120   0.699E-02    0.154E-02
DAV:  13    -0.437210664159E+02   -0.42542E-04   -0.26558E-04   992   0.431E-02
   2 F= -.43721066E+02 E0= -.43721066E+02  d E =-.160578E+00  mag=     5.3961
       N       E                     dE             d eps       ncg     rms          rms(c)
DAV:   1    -0.437462544174E+02   -0.25231E-01   -0.49341E-01  1248   0.410E+00    0.826E-01
DAV:   2    -0.437451783285E+02    0.10761E-02   -0.86347E-02  1296   0.302E+00    0.872E-01
DAV:   3    -0.437336495792E+02    0.11529E-01   -0.51704E-02  1440   0.245E+00    0.408E-01
DAV:   4    -0.437293593852E+02    0.42902E-02   -0.12245E-02  1328   0.917E-01    0.719E-02
DAV:   5    -0.437291209650E+02    0.23842E-03   -0.78394E-04  1232   0.138E-01    0.301E-02
DAV:   6    -0.437290488021E+02    0.72163E-04   -0.73993E-05   784   0.609E-02
   3 F= -.43729049E+02 E0= -.43729049E+02  d E =-.168560E+00  mag=     5.4107
       N       E                     dE             d eps       ncg     rms          rms(c)
DAV:   1    -0.437561960148E+02   -0.27075E-01   -0.98320E-01   976   0.340E+00    0.385E-01
DAV:   2    -0.437607429088E+02   -0.45469E-02   -0.63706E-02  1184   0.944E-01    0.216E-01
DAV:   3    -0.437603887276E+02    0.35418E-03   -0.36788E-03  1312   0.540E-01    0.179E-01
DAV:   4    -0.437600641451E+02    0.32458E-03   -0.33182E-03  1392   0.634E-01    0.149E-01
DAV:   5    -0.437597544735E+02    0.30967E-03   -0.15805E-03  1312   0.404E-01    0.557E-02
DAV:   6    -0.437597935320E+02   -0.39059E-04   -0.37117E-04  1104   0.197E-01
   4 F= -.43759794E+02 E0= -.43759794E+02  d E =-.307447E-01  mag=     5.4130
       N       E                     dE             d eps       ncg     rms          rms(c)
DAV:   1    -0.437633706705E+02   -0.36162E-02   -0.49099E-01   976   0.238E+00    0.269E-01
DAV:   2    -0.437657061057E+02   -0.23354E-02   -0.32273E-02  1120   0.637E-01    0.149E-01
DAV:   3    -0.437654754579E+02    0.23065E-03   -0.12675E-03  1296   0.186E-01    0.935E-02
DAV:   4    -0.437653412403E+02    0.13422E-03   -0.12762E-03  1184   0.299E-01    0.920E-02
DAV:   5    -0.437652595500E+02    0.81690E-04   -0.58859E-04  1296   0.258E-01
   5 F= -.43765260E+02 E0= -.43765260E+02  d E =-.362107E-01  mag=     5.4108
       N       E                     dE             d eps       ncg     rms          rms(c)
DAV:   1    -0.437891905171E+02   -0.23849E-01   -0.11909E+00  1088   0.419E+00    0.613E-01
DAV:   2    -0.437905597049E+02   -0.13692E-02   -0.80134E-02  1248   0.172E+00    0.458E-01
DAV:   3    -0.437886238124E+02    0.19359E-02   -0.21120E-02  1360   0.149E+00    0.374E-01
DAV:   4    -0.437855523651E+02    0.30714E-02   -0.75733E-03  1328   0.829E-01    0.926E-02
DAV:   5    -0.437853417551E+02    0.21061E-03   -0.19452E-03  1392   0.380E-01    0.109E-01
DAV:   6    -0.437851836276E+02    0.15813E-03   -0.71643E-04  1200   0.321E-01    0.347E-02
DAV:   7    -0.437851498109E+02    0.33817E-04   -0.67753E-05   752   0.825E-02
   6 F= -.43785150E+02 E0= -.43785150E+02  d E =-.198903E-01  mag=     5.4201
       N       E                     dE             d eps       ncg     rms          rms(c)
DAV:   1    -0.437888627398E+02   -0.36791E-02   -0.29292E-01  1008   0.208E+00    0.304E-01
DAV:   2    -0.437889980093E+02   -0.13527E-03   -0.19629E-02  1200   0.839E-01    0.224E-01
DAV:   3    -0.437886170604E+02    0.38095E-03   -0.51201E-03  1280   0.725E-01    0.185E-01
DAV:   4    -0.437877718372E+02    0.84522E-03   -0.18770E-03  1328   0.403E-01    0.415E-02
DAV:   5    -0.437876859830E+02    0.85854E-04   -0.30637E-04   960   0.659E-02
   7 F= -.43787686E+02 E0= -.43787686E+02  d E =-.224264E-01  mag=     5.4278
       N       E                     dE             d eps       ncg     rms          rms(c)
DAV:   1    -0.437967058602E+02   -0.89340E-02   -0.79803E-01  1056   0.341E+00    0.664E-01
DAV:   2    -0.438023783347E+02   -0.56725E-02   -0.51945E-02  1312   0.171E+00    0.540E-01
DAV:   3    -0.437998761212E+02    0.25022E-02   -0.25151E-02  1280   0.165E+00    0.340E-01
DAV:   4    -0.437982319115E+02    0.16442E-02   -0.37968E-03  1248   0.603E-01    0.994E-02
DAV:   5    -0.437980998524E+02    0.13206E-03   -0.12021E-03  1328   0.150E-01    0.287E-02
DAV:   6    -0.437980420602E+02    0.57792E-04   -0.14932E-04   912   0.125E-01
   8 F= -.43798042E+02 E0= -.43798042E+02  d E =-.103561E-01  mag=     5.4312
       N       E                     dE             d eps       ncg     rms          rms(c)
DAV:   1    -0.437999174897E+02   -0.18176E-02   -0.62859E-01  1008   0.304E+00    0.590E-01
DAV:   2    -0.438041173689E+02   -0.41999E-02   -0.41190E-02  1232   0.154E+00    0.483E-01
DAV:   3    -0.438020479538E+02    0.20694E-02   -0.20301E-02  1312   0.148E+00    0.303E-01
DAV:   4    -0.438007190704E+02    0.13289E-02   -0.30048E-03  1312   0.536E-01    0.906E-02
DAV:   5    -0.438004175665E+02    0.30150E-03   -0.10693E-03  1296   0.166E-01    0.403E-02
DAV:   6    -0.438004332302E+02   -0.15664E-04   -0.26860E-04   976   0.192E-01
   9 F= -.43800433E+02 E0= -.43800433E+02  d E =-.127472E-01  mag=     5.4319
       N       E                     dE             d eps       ncg     rms          rms(c)
DAV:   1    -0.438046453597E+02   -0.42278E-02   -0.18992E-01   976   0.139E+00    0.260E-01
DAV:   2    -0.438054372507E+02   -0.79189E-03   -0.53089E-03  1088   0.340E-01    0.127E-01
DAV:   3    -0.438056577108E+02   -0.22046E-03   -0.40781E-04  1136   0.141E-01    0.490E-02
DAV:   4    -0.438056493519E+02    0.83589E-05   -0.29856E-04  1072   0.193E-01
  10 F= -.43805649E+02 E0= -.43805649E+02  d E =-.521612E-02  mag=     5.4320
       N       E                     dE             d eps       ncg     rms          rms(c)
DAV:   1    -0.438075042497E+02   -0.18465E-02   -0.17071E+00   960   0.416E+00    0.775E-01
DAV:   2    -0.438164173279E+02   -0.89131E-02   -0.46276E-02  1008   0.991E-01    0.380E-01
DAV:   3    -0.438179397429E+02   -0.15224E-02   -0.37387E-03  1264   0.454E-01    0.151E-01
DAV:   4    -0.438176281005E+02    0.31164E-03   -0.22715E-03  1328   0.510E-01    0.163E-01
DAV:   5    -0.438171128917E+02    0.51521E-03   -0.18855E-03  1264   0.454E-01    0.640E-02
DAV:   6    -0.438170761354E+02    0.36756E-04   -0.57860E-04  1024   0.261E-01
  11 F= -.43817076E+02 E0= -.43817076E+02  d E =-.166429E-01  mag=     5.4316
       N       E                     dE             d eps       ncg     rms          rms(c)
DAV:   1    -0.437828156857E+02    0.34297E-01   -0.68239E+00   960   0.839E+00    0.155E+00
DAV:   2    -0.438223302292E+02   -0.39515E-01   -0.20907E-01  1264   0.238E+00    0.816E-01
DAV:   3    -0.438289247714E+02   -0.65945E-02   -0.22760E-02  1296   0.137E+00    0.381E-01
DAV:   4    -0.438270500673E+02    0.18747E-02   -0.96225E-03  1360   0.104E+00    0.273E-01
DAV:   5    -0.438250334993E+02    0.20166E-02   -0.57134E-03  1248   0.656E-01    0.958E-02
DAV:   6    -0.438252047038E+02   -0.17120E-03   -0.14141E-03  1280   0.367E-01    0.935E-02
DAV:   7    -0.438254399769E+02   -0.23527E-03   -0.54607E-04  1008   0.265E-01    0.372E-02
DAV:   8    -0.438259108652E+02   -0.47089E-03   -0.30169E-04   928   0.991E-02    0.246E-02
DAV:   9    -0.438264243271E+02   -0.51346E-03   -0.25556E-04   896   0.624E-02    0.174E-02
DAV:  10    -0.438269997177E+02   -0.57539E-03   -0.32273E-04   960   0.582E-02    0.139E-02
DAV:  11    -0.438273333458E+02   -0.33363E-03   -0.51051E-04  1104   0.550E-02    0.903E-03
DAV:  12    -0.438274586890E+02   -0.12534E-03   -0.21326E-04  1056   0.334E-02    0.792E-03
DAV:  13    -0.438274127400E+02    0.45949E-04   -0.86479E-05   896   0.235E-02
  12 F= -.43827413E+02 E0= -.43827413E+02  d E =-.269795E-01  mag=     5.4303
       N       E                     dE             d eps       ncg     rms          rms(c)
DAV:   1    -0.438386519524E+02   -0.11193E-01   -0.59698E-01  1152   0.321E+00    0.477E-01
DAV:   2    -0.438360906172E+02    0.25613E-02   -0.51470E-02  1280   0.163E+00    0.461E-01
DAV:   3    -0.438385092266E+02   -0.24186E-02   -0.16214E-02  1360   0.134E+00    0.259E-01
DAV:   4    -0.438368786684E+02    0.16306E-02   -0.31805E-03  1280   0.509E-01    0.686E-02
DAV:   5    -0.438366383882E+02    0.24028E-03   -0.67557E-04  1136   0.790E-02    0.222E-02
DAV:   6    -0.438366107690E+02    0.27619E-04   -0.42019E-05   800   0.406E-02
  13 F= -.43836611E+02 E0= -.43836611E+02  d E =-.919803E-02  mag=     5.4332
       N       E                     dE             d eps       ncg     rms          rms(c)
DAV:   1    -0.438398472521E+02   -0.32089E-02   -0.36719E-01  1088   0.252E+00    0.377E-01
DAV:   2    -0.438049498158E+02    0.34897E-01   -0.32172E-02  1264   0.131E+00    0.408E-01
DAV:   3    -0.438401767475E+02   -0.35227E-01   -0.11070E-02  1376   0.111E+00    0.221E-01
DAV:   4    -0.438984262047E+02   -0.58249E-01   -0.21117E-03  1328   0.401E-01    0.123E-01
DAV:   5    -0.438312751126E+02    0.67151E-01   -0.42092E-04  1136   0.864E-02    0.469E-02
DAV:   6    -0.438323247946E+02   -0.10497E-02   -0.23968E-04  1024   0.800E-02    0.213E-02
DAV:   7    -0.438977287890E+02   -0.65404E-01   -0.73045E-05   832   0.990E-02    0.863E-02
DAV:   8    -0.438977900006E+02   -0.61212E-04   -0.18910E-04  1040   0.829E-02
  14 F= -.43897790E+02 E0= -.43897790E+02  d E =-.703773E-01  mag=     5.4394
       N       E                     dE             d eps       ncg     rms          rms(c)
DAV:   1    -0.438311172855E+02    0.66612E-01   -0.14727E+00  1040   0.503E+00    0.742E-01
DAV:   2    -0.438362103135E+02   -0.50930E-02   -0.12639E-01  1216   0.256E+00    0.720E-01
DAV:   3    -0.438306877042E+02    0.55226E-02   -0.38120E-02  1472   0.206E+00    0.395E-01
DAV:   4    -0.438271193711E+02    0.35683E-02   -0.75113E-03  1312   0.775E-01    0.107E-01
DAV:   5    -0.438266218011E+02    0.49757E-03   -0.16448E-03  1072   0.127E-01    0.366E-02
DAV:   6    -0.438265585447E+02    0.63256E-04   -0.14306E-04   800   0.117E-01
  15 F= -.43826559E+02 E0= -.43826559E+02  d E =0.854195E-03  mag=     5.4475
       N       E                     dE             d eps       ncg     rms          rms(c)
DAV:   1    -0.438617583135E+02   -0.35137E-01   -0.71471E-01  1152   0.347E+00    0.504E-01
DAV:   2    -0.438422500169E+02    0.19508E-01   -0.60387E-02  1264   0.173E+00    0.495E-01
DAV:   3    -0.437962039799E+02    0.46046E-01   -0.18955E-02  1328   0.146E+00    0.310E-01
DAV:   4    -0.438728957653E+02   -0.76692E-01   -0.43830E-03  1296   0.516E-01    0.951E-02
DAV:   5    -0.438701701567E+02    0.27256E-02   -0.15278E-03  1184   0.165E-01    0.494E-02
DAV:   6    -0.438693233604E+02    0.84680E-03   -0.42282E-04  1072   0.220E-01    0.680E-02
DAV:   7    -0.438033109192E+02    0.66012E-01   -0.21772E-04  1008   0.194E-01    0.684E-02
DAV:   8    -0.438041489427E+02   -0.83802E-03   -0.17512E-03  1056   0.956E-02    0.484E-02
DAV:   9    -0.438703981678E+02   -0.66249E-01   -0.12746E-04  1104   0.341E-02    0.513E-02
DAV:  10    -0.438703527075E+02    0.45460E-04   -0.16575E-03  1200   0.730E-02    0.447E-02
DAV:  11    -0.438038178612E+02    0.66535E-01   -0.36719E-05   848   0.147E-02    0.442E-02
DAV:  12    -0.438708277154E+02   -0.67010E-01   -0.18429E-03   992   0.793E-02    0.500E-02
DAV:  13    -0.438707688403E+02    0.58875E-04   -0.15832E-03  1008   0.720E-02    0.474E-02
DAV:  14    -0.438041699509E+02    0.66599E-01   -0.20857E-05   880   0.969E-03    0.405E-02
DAV:  15    -0.438709624495E+02   -0.66792E-01   -0.17841E-03   992   0.766E-02    0.518E-02
DAV:  16    -0.438709284763E+02    0.33973E-04   -0.15609E-03  1008   0.691E-02    0.486E-02
DAV:  17    -0.438709277474E+02    0.72886E-06   -0.18119E-05   880   0.797E-03
  16 F= -.43870928E+02 E0= -.43870928E+02  d E =-.435150E-01  mag=     5.4478
       N       E                     dE             d eps       ncg     rms          rms(c)
DAV:   1    -0.438472157471E+02    0.23713E-01   -0.42040E-01   960   0.235E+00    0.331E-01
DAV:   2    -0.437920194118E+02    0.55196E-01   -0.23680E-02  1120   0.825E-01    0.213E-01
DAV:   3    -0.438416925733E+02   -0.49673E-01   -0.61627E-03  1408   0.701E-01    0.191E-01
DAV:   4    -0.437867354144E+02    0.54957E-01   -0.35102E-03  1376   0.488E-01    0.689E-02
DAV:   5    -0.438559290393E+02   -0.69194E-01   -0.13235E-03  1072   0.965E-02    0.905E-02
DAV:   6    -0.437851975564E+02    0.70731E-01   -0.12325E-03  1072   0.108E-01    0.440E-02
DAV:   7    -0.438537899744E+02   -0.68592E-01   -0.13796E-03  1104   0.688E-02    0.553E-02
DAV:   8    -0.438536499414E+02    0.14003E-03   -0.10722E-03  1072   0.699E-02    0.442E-02
DAV:   9    -0.437860122076E+02    0.67638E-01   -0.36092E-05   832   0.430E-02    0.500E-02
DAV:  10    -0.437853054534E+02    0.70675E-03   -0.12436E-03  1136   0.717E-02    0.453E-02
DAV:  11    -0.437859103705E+02   -0.60492E-03   -0.54326E-05  1056   0.165E-02    0.466E-02
DAV:  12    -0.438535443638E+02   -0.67634E-01   -0.74179E-06   928   0.141E-02    0.426E-02
DAV:  13    -0.437857197421E+02    0.67825E-01   -0.12465E-03  1152   0.573E-02    0.516E-02
DAV:  14    -0.437857168199E+02    0.29222E-05   -0.16021E-03  1088   0.686E-02    0.493E-02
DAV:  15    -0.437856442602E+02    0.72560E-04   -0.74703E-05  1008   0.188E-02
  17 F= -.43785644E+02 E0= -.43785644E+02  d E =0.852835E-01  mag=     5.4384
       N       E                     dE             d eps       ncg     rms          rms(c)
DAV:   1    -0.438426033998E+02   -0.56887E-01   -0.16851E-01  1168   0.149E+00    0.201E-01
DAV:   2    -0.438428024042E+02   -0.19900E-03   -0.10148E-02  1280   0.462E-01    0.126E-01
DAV:   3    -0.438424107749E+02    0.39163E-03   -0.18386E-03  1392   0.415E-01    0.132E-01
DAV:   4    -0.438422063069E+02    0.20447E-03   -0.11250E-03  1184   0.325E-01    0.418E-02
DAV:   5    -0.438421314661E+02    0.74841E-04   -0.14062E-04   736   0.835E-02
  18 F= -.43842131E+02 E0= -.43842131E+02  d E =0.287963E-01  mag=     5.4431
       N       E                     dE             d eps       ncg     rms          rms(c)
DAV:   1    -0.438461808189E+02   -0.39745E-02   -0.19822E-01  1344   0.207E+00    0.392E-01
DAV:   2    -0.437855302880E+02    0.60651E-01   -0.19272E-02  1184   0.124E+00    0.355E-01
DAV:   3    -0.438438302485E+02   -0.58300E-01   -0.11569E-02  1408   0.104E+00    0.179E-01
DAV:   4    -0.438442438358E+02   -0.41359E-03   -0.31561E-03  1360   0.406E-01    0.487E-02
DAV:   5    -0.438443666252E+02   -0.12279E-03   -0.26457E-04   928   0.916E-02    0.244E-02
DAV:   6    -0.438444544207E+02   -0.87796E-04   -0.88499E-05   752   0.812E-02
  19 F= -.43844454E+02 E0= -.43844454E+02  d E =-.232295E-02  mag=     5.4424
       N       E                     dE             d eps       ncg     rms          rms(c)
DAV:   1    -0.438445499900E+02   -0.18336E-03   -0.19011E-03  1312   0.214E-01    0.360E-02
DAV:   2    -0.438445180158E+02    0.31974E-04   -0.15848E-04   832   0.131E-01
  20 F= -.43844518E+02 E0= -.43844518E+02  d E =-.238655E-02  mag=     5.4431
