 vasp.5.4.4.18Apr17-6-g9f103f2a35 (build May  1 2020 15:48:39) complex           
 executed on             LinuxGNU date 2020.06.15  10:53:29
 running on   16 total cores
 distrk:  each k-point on   16 cores,    1 groups
 distr:  one band on NCORES_PER_BAND=   1 cores,   16 groups


--------------------------------------------------------------------------------------------------------


 INCAR:
 POTCAR:   PAW_PBE Cr 06Sep2000                   
 POTCAR:   PAW_PBE Si 05Jan2001                   
 POTCAR:    PAW_PBE P 17Jan2003                   
 POTCAR:   PAW_PBE Te 08Apr2002                   

 ----------------------------------------------------------------------------- 
|                                                                             |
|           W    W    AA    RRRRR   N    N  II  N    N   GGGG   !!!           |
|           W    W   A  A   R    R  NN   N  II  NN   N  G    G  !!!           |
|           W    W  A    A  R    R  N N  N  II  N N  N  G       !!!           |
|           W WW W  AAAAAA  RRRRR   N  N N  II  N  N N  G  GGG   !            |
|           WW  WW  A    A  R   R   N   NN  II  N   NN  G    G                |
|           W    W  A    A  R    R  N    N  II  N    N   GGGG   !!!           |
|                                                                             |
|      For optimal performance we recommend to set                            |
|        NCORE= 4 - approx SQRT( number of cores)                             |
|      NCORE specifies how many cores store one orbital (NPAR=cpu/NCORE).     |
|      This setting can  greatly improve the performance of VASP for DFT.     |
|      The default,   NCORE=1            might be grossly inefficient         |
|      on modern multi-core architectures or massively parallel machines.     |
|      Do your own testing !!!!                                               |
|      Unfortunately you need to use the default for GW and RPA calculations. |
|      (for HF NCORE is supported but not extensively tested yet)             |
|                                                                             |
 ----------------------------------------------------------------------------- 


 ----------------------------------------------------------------------------- 
|                                                                             |
|  ADVICE TO THIS USER RUNNING 'VASP/VAMP'   (HEAR YOUR MASTER'S VOICE ...):  |
|                                                                             |
|      You have switched on vdW-DFT.                                          |
|      This routine was written and supplied by Jiri Klimes.                  |
|      We recommed that you carefully read and cite the following             |
|      publication                                                            |
|      J. Klimes, D.R. Bowler, A. Michelides                                  |
|        J. Phys.: Cond Matt. 22 022201 (2010)                                |
|      J. Klimes, D.R. Bowler, A. Michelides                                  |
|        Phys. Rev. B. 83, 195131 (2011)                                      |
|      and references therein.                                                |
|                                                                             |
 ----------------------------------------------------------------------------- 

 POTCAR:   PAW_PBE Cr 06Sep2000                   
   VRHFIN =Cr : d5 s1                                                           
   LEXCH  = PE                                                                  
   EATOM  =   276.9744 eV,   20.3570 Ry                                         
                                                                                
   TITEL  = PAW_PBE Cr 06Sep2000                                                
   LULTRA =        F    use ultrasoft PP ?                                      
   IUNSCR =        1    unscreen: 0-lin 1-nonlin 2-no                           
   RPACOR =    2.080    partial core radius                                     
   POMASS =   51.996; ZVAL   =    6.000    mass and valenz                      
   RCORE  =    2.500    outmost cutoff radius                                   
   RWIGS  =    2.500; RWIGS  =    1.323    wigner-seitz radius (au A)           
   ENMAX  =  227.082; ENMIN  =  170.311 eV                                      
   RCLOC  =    1.721    cutoff for local pot                                    
   LCOR   =        T    correct aug charges                                     
   LPAW   =        T    paw PP                                                  
   EAUG   =  402.108                                                            
   DEXC   =    -.035                                                            
   RMAX   =    3.060    core radius for proj-oper                               
   RAUG   =    1.300    factor for augmentation sphere                          
   RDEP   =    2.609    radius for radial grids                                 
   QCUT   =   -4.085; QGAM   =    8.171    optimization parameters              
                                                                                
   Description                                                                  
     l     E      TYP  RCUT    TYP  RCUT                                        
     2   .000     23  2.500                                                     
     2   .000     23  2.500                                                     
     0   .000     23  2.500                                                     
     0   .000     23  2.500                                                     
     1  -.400     23  2.500                                                     
     1  2.000     23  2.500                                                     
     3   .000      7   .000                                                     
  local pseudopotential read in
  partial core-charges read in
  atomic valenz-charges read in
  non local Contribution for L=           2  read in
    real space projection operators read in
  non local Contribution for L=           2  read in
    real space projection operators read in
  non local Contribution for L=           0  read in
    real space projection operators read in
  non local Contribution for L=           0  read in
    real space projection operators read in
  non local Contribution for L=           1  read in
    real space projection operators read in
  non local Contribution for L=           1  read in
    real space projection operators read in
    PAW grid and wavefunctions read in

   number of l-projection  operators is LMAX  =           6
   number of lm-projection operators is LMMAX =          18

 POTCAR:   PAW_PBE Si 05Jan2001                   
   VRHFIN =Si: s2p2                                                             
   LEXCH  = PE                                                                  
   EATOM  =   103.0669 eV,    7.5752 Ry                                         
                                                                                
   TITEL  = PAW_PBE Si 05Jan2001                                                
   LULTRA =        F    use ultrasoft PP ?                                      
   IUNSCR =        1    unscreen: 0-lin 1-nonlin 2-no                           
   RPACOR =    1.500    partial core radius                                     
   POMASS =   28.085; ZVAL   =    4.000    mass and valenz                      
   RCORE  =    1.900    outmost cutoff radius                                   
   RWIGS  =    2.480; RWIGS  =    1.312    wigner-seitz radius (au A)           
   ENMAX  =  245.345; ENMIN  =  184.009 eV                                      
   ICORE  =        2    local potential                                         
   LCOR   =        T    correct aug charges                                     
   LPAW   =        T    paw PP                                                  
   EAUG   =  322.069                                                            
   DEXC   =    -.007                                                            
   RMAX   =    2.944    core radius for proj-oper                               
   RAUG   =    1.300    factor for augmentation sphere                          
   RDEP   =    1.993    radius for radial grids                                 
   QCUT   =   -4.246; QGAM   =    8.493    optimization parameters              
                                                                                
   Description                                                                  
     l     E      TYP  RCUT    TYP  RCUT                                        
     0   .000     23  1.900                                                     
     0   .000     23  1.900                                                     
     1   .000     23  1.900                                                     
     1   .000     23  1.900                                                     
     2   .000      7  1.900                                                     
  local pseudopotential read in
  partial core-charges read in
  atomic valenz-charges read in
  non local Contribution for L=           0  read in
    real space projection operators read in
  non local Contribution for L=           0  read in
    real space projection operators read in
  non local Contribution for L=           1  read in
    real space projection operators read in
  non local Contribution for L=           1  read in
    real space projection operators read in
    PAW grid and wavefunctions read in

   number of l-projection  operators is LMAX  =           4
   number of lm-projection operators is LMMAX =           8

 POTCAR:    PAW_PBE P 17Jan2003                   
   VRHFIN =P : s2p3                                                             
   LEXCH  = PE                                                                  
   EATOM  =   176.0430 eV,   12.9388 Ry                                         
                                                                                
   TITEL  = PAW_PBE P 17Jan2003                                                 
   LULTRA =        F    use ultrasoft PP ?                                      
   IUNSCR =        1    unscreen: 0-lin 1-nonlin 2-no                           
   RPACOR =    1.500    partial core radius                                     
   POMASS =   30.974; ZVAL   =    5.000    mass and valenz                      
   RCORE  =    1.900    outmost cutoff radius                                   
   RWIGS  =    2.330; RWIGS  =    1.233    wigner-seitz radius (au A)           
   ENMAX  =  270.000; ENMIN  =  191.280 eV                                      
   ICORE  =        2    local potential                                         
   LCOR   =        T    correct aug charges                                     
   LPAW   =        T    paw PP                                                  
   EAUG   =  342.924                                                            
   DEXC   =    -.002                                                            
   RMAX   =    2.887    core radius for proj-oper                               
   RAUG   =    1.300    factor for augmentation sphere                          
   RDEP   =    1.931    radius for radial grids                                 
   QCUT   =   -4.330; QGAM   =    8.659    optimization parameters              
                                                                                
   Description                                                                  
     l     E      TYP  RCUT    TYP  RCUT                                        
     0   .000     23  1.900                                                     
     0   .000     23  1.900                                                     
     1   .000     23  1.900                                                     
     1   .000     23  1.900                                                     
     2   .000     23  1.900                                                     
  local pseudopotential read in
  partial core-charges read in
  atomic valenz-charges read in
  non local Contribution for L=           0  read in
    real space projection operators read in
  non local Contribution for L=           0  read in
    real space projection operators read in
  non local Contribution for L=           1  read in
    real space projection operators read in
  non local Contribution for L=           1  read in
    real space projection operators read in
    PAW grid and wavefunctions read in

   number of l-projection  operators is LMAX  =           4
   number of lm-projection operators is LMMAX =           8

 POTCAR:   PAW_PBE Te 08Apr2002                   
   VRHFIN =Te: s2p4                                                             
   LEXCH  = PE                                                                  
   EATOM  =   223.2721 eV,   16.4100 Ry                                         
                                                                                
   TITEL  = PAW_PBE Te 08Apr2002                                                
   LULTRA =        F    use ultrasoft PP ?                                      
   IUNSCR =        1    unscreen: 0-lin 1-nonlin 2-no                           
   RPACOR =    2.200    partial core radius                                     
   POMASS =  127.600; ZVAL   =    6.000    mass and valenz                      
   RCORE  =    2.300    outmost cutoff radius                                   
   RWIGS  =    2.900; RWIGS  =    1.535    wigner-seitz radius (au A)           
   ENMAX  =  174.982; ENMIN  =  131.236 eV                                      
   ICORE  =        3    local potential                                         
   LCOR   =        T    correct aug charges                                     
   LPAW   =        T    paw PP                                                  
   EAUG   =  368.792                                                            
   DEXC   =    -.169                                                            
   RMAX   =    3.486    core radius for proj-oper                               
   RAUG   =    1.300    factor for augmentation sphere                          
   RDEP   =    2.397    radius for radial grids                                 
   QCUT   =   -3.586; QGAM   =    7.172    optimization parameters              
                                                                                
   Description                                                                  
     l     E      TYP  RCUT    TYP  RCUT                                        
     0   .000     23  2.300                                                     
     0   .000     23  2.300                                                     
     1   .000     23  2.300                                                     
     1   .000     23  2.300                                                     
     2   .000     23  2.300                                                     
     3  -.100     23  2.300                                                     
  local pseudopotential read in
  partial core-charges read in
  atomic valenz-charges read in
  non local Contribution for L=           0  read in
    real space projection operators read in
  non local Contribution for L=           0  read in
    real space projection operators read in
  non local Contribution for L=           1  read in
    real space projection operators read in
  non local Contribution for L=           1  read in
    real space projection operators read in
  non local Contribution for L=           2  read in
    real space projection operators read in
    PAW grid and wavefunctions read in

   number of l-projection  operators is LMAX  =           5
   number of lm-projection operators is LMMAX =          13

 Optimization of the real space projectors (new method)

 maximal supplied QI-value         = 15.12
 optimisation between [QCUT,QGAM] = [ 11.64, 23.28] = [ 37.95,151.78] Ry 
 Optimized for a Real-space Cutoff    1.49 Angstroem

   l    n(q)    QCUT    max X(q) W(low)/X(q) W(high)/X(q)  e(spline) 
   2      9    11.641     4.777    0.25E-04    0.21E-05    0.63E-07
   2      9    11.641    31.132    0.13E-03    0.22E-03    0.64E-06
   0     10    11.641    20.416    0.11E-04    0.74E-05    0.19E-07
   0     10    11.641    45.408    0.10E-03    0.85E-04    0.30E-06
   1     10    11.641     7.848    0.22E-04    0.23E-04    0.56E-07
   1     10    11.641     9.895    0.85E-04    0.54E-04    0.16E-06
 Optimization of the real space projectors (new method)

 maximal supplied QI-value         = 19.84
 optimisation between [QCUT,QGAM] = [ 11.51, 23.22] = [ 37.09,150.92] Ry 
 Optimized for a Real-space Cutoff    1.21 Angstroem

   l    n(q)    QCUT    max X(q) W(low)/X(q) W(high)/X(q)  e(spline) 
   0      8    11.508     8.708    0.18E-04    0.44E-05    0.47E-08
   0      8    11.508   106.241    0.70E-04    0.15E-03    0.51E-07
   1      8    11.508     5.901    0.63E-05    0.23E-04    0.21E-07
   1      8    11.508    73.241    0.15E-03    0.36E-04    0.79E-07
 Optimization of the real space projectors (new method)

 maximal supplied QI-value         = 19.84
 optimisation between [QCUT,QGAM] = [ 11.51, 23.22] = [ 37.09,150.92] Ry 
 Optimized for a Real-space Cutoff    1.21 Angstroem

   l    n(q)    QCUT    max X(q) W(low)/X(q) W(high)/X(q)  e(spline) 
   0      8    11.508     6.651    0.19E-04    0.31E-05    0.49E-08
   0      8    11.508    90.285    0.95E-04    0.17E-03    0.51E-07
   1      8    11.508     4.328    0.14E-04    0.32E-04    0.22E-07
   1      8    11.508    54.583    0.16E-03    0.71E-04    0.89E-07
 Optimization of the real space projectors (new method)

 maximal supplied QI-value         = 16.25
 optimisation between [QCUT,QGAM] = [ 11.54, 23.24] = [ 37.28,151.24] Ry 
 Optimized for a Real-space Cutoff    1.36 Angstroem

   l    n(q)    QCUT    max X(q) W(low)/X(q) W(high)/X(q)  e(spline) 
   0      9    11.539     7.090    0.13E-04    0.25E-05    0.51E-08
   0      9    11.539   101.654    0.53E-04    0.69E-04    0.12E-06
   1      9    11.539     5.276    0.20E-04    0.98E-05    0.24E-07
   1      9    11.539    81.891    0.24E-03    0.13E-04    0.15E-06
   2      9    11.539     5.599    0.30E-04    0.97E-04    0.54E-07

 ----------------------------------------------------------------------------- 
|                                                                             |
|  ADVICE TO THIS USER RUNNING 'VASP/VAMP'   (HEAR YOUR MASTER'S VOICE ...):  |
|                                                                             |
|      You enforced a specific xc-type in the INCAR file,                     |
|      a different type was found on the POTCAR file                          |
|          I HOPE YOU KNOW, WHAT YOU ARE  DOING                               |
|                                                                             |
 ----------------------------------------------------------------------------- 

 PAW_PBE Cr 06Sep2000                   :
 energy of atom  1       EATOM= -276.9744
 kinetic energy error for atom=    0.0010 (will be added to EATOM!!)
 PAW_PBE Si 05Jan2001                   :
 energy of atom  2       EATOM= -103.0669
 kinetic energy error for atom=    0.0005 (will be added to EATOM!!)
  PAW_PBE P 17Jan2003                   :
 energy of atom  3       EATOM= -176.0430
 kinetic energy error for atom=    0.0011 (will be added to EATOM!!)
 PAW_PBE Te 08Apr2002                   :
 energy of atom  4       EATOM= -223.2721
 kinetic energy error for atom=    0.0007 (will be added to EATOM!!)


 POSCAR: Cr2 Si P Te6                            
  positions in direct lattice
  velocities in cartesian coordinates
  No initial velocities read in
 exchange correlation table for  LEXCH =       42
   RHO(1)=    0.500       N(1)  =     2000
   RHO(2)=  100.500       N(2)  =     4000



--------------------------------------------------------------------------------------------------------


 ion  position               nearest neighbor table
   1  0.333  0.333  0.500-   6 2.78   5 2.78   7 2.78   8 2.78  10 2.78   9 2.78
   2  0.667  0.667  0.500-   9 2.78   8 2.78  10 2.78   5 2.78   7 2.78   6 2.78
   3  0.000  0.000  0.448-   4 2.43   8 2.63  10 2.63   9 2.63
   4  0.000  0.000  0.552-   3 2.43   5 2.63   7 2.63   6 2.63
   5  0.626  0.000  0.574-   4 2.63   1 2.78   2 2.78
   6  0.000  0.373  0.574-   4 2.63   1 2.78   2 2.78
   7  0.373  0.626  0.574-   4 2.63   1 2.78   2 2.78
   8  0.374  1.000  0.426-   3 2.63   2 2.78   1 2.78
   9  1.000  0.627  0.426-   3 2.63   2 2.78   1 2.78
  10  0.627  0.374  0.426-   3 2.63   2 2.78   1 2.78

  LATTYP: Found a hexagonal cell.
 ALAT       =     6.9077769333
 C/A-ratio  =     3.3939410937
  
  Lattice vectors:
  
 A1 = (   3.4538890000,  -5.9823100000,   0.0000000000)
 A2 = (  -6.9077770000,   0.0000000000,   0.0000000000)
 A3 = (   0.0000000000,   0.0000000000, -23.4445880000)


Analysis of symmetry for initial positions (statically):
=====================================================================
 Subroutine PRICEL returns:
 Original cell was already a primitive cell.
 

 Routine SETGRP: Setting up the symmetry group for a 
 hexagonal supercell.


 Subroutine GETGRP returns: Found  3 space group operations
 (whereof  3 operations were pure point group operations)
 out of a pool of 24 trial point group operations.


The static configuration has the point symmetry C_3 .


Analysis of symmetry for dynamics (positions and initial velocities):
=====================================================================
 Subroutine PRICEL returns:
 Original cell was already a primitive cell.
 

 Routine SETGRP: Setting up the symmetry group for a 
 hexagonal supercell.


 Subroutine GETGRP returns: Found  3 space group operations
 (whereof  3 operations were pure point group operations)
 out of a pool of 24 trial point group operations.


The dynamic configuration has the point symmetry C_3 .


Analysis of structural, dynamic, and magnetic symmetry:
=====================================================================
 Subroutine PRICEL returns:
 Original cell was already a primitive cell.
 

 Routine SETGRP: Setting up the symmetry group for a 
 hexagonal supercell.


 Subroutine GETGRP returns: Found  3 space group operations
 (whereof  3 operations were pure point group operations)
 out of a pool of 24 trial point group operations.


The magnetic configuration has the point symmetry C_3 .


 Subroutine INISYM returns: Found  3 space group operations
 (whereof  3 operations are pure point group operations),
 and found     1 'primitive' translations



 KPOINTS: Kpoints from vasprun.xml                

Automatic generation of k-mesh.
Space group operators:
 irot       det(A)        alpha          n_x          n_y          n_z        tau_x        tau_y        tau_z
    1     1.000000     0.000000     1.000000     0.000000     0.000000     0.000000     0.000000     0.000000
    2     1.000000   120.000000     0.000000     0.000000     1.000000     0.000000     0.000000     0.000000
    3     1.000000   120.000000     0.000000     0.000000    -1.000000     0.000000     0.000000     0.000000
 
 Subroutine IBZKPT returns following result:
 ===========================================
 
 Found      5 irreducible k-points:
 
 Following reciprocal coordinates:
            Coordinates               Weight
  0.000000  0.000000  0.000000      1.000000
  0.200000  0.000000  0.000000      6.000000
  0.400000  0.000000  0.000000      6.000000
  0.400000  0.200000  0.000000      6.000000
 -0.400000  0.200000  0.000000      6.000000
 
 Following cartesian coordinates:
            Coordinates               Weight
  0.000000  0.000000  0.000000      1.000000
  0.028953 -0.016716  0.000000      6.000000
  0.057906 -0.033432  0.000000      6.000000
  0.057906  0.000000  0.000000      6.000000
 -0.057906  0.066864  0.000000      6.000000
 
 TETIRR: Found     15 inequivalent tetrahedra from      150


--------------------------------------------------------------------------------------------------------




 Dimension of arrays:
   k-points           NKPTS =      5   k-points in BZ     NKDIM =      5   number of bands    NBANDS=     48
   number of dos      NEDOS =    301   number of ions     NIONS =     10
   non local maximal  LDIM  =      6   non local SUM 2l+1 LMDIM =     18
   total plane-waves  NPLWV = 524880
   max r-space proj   IRMAX =   7543   max aug-charges    IRDMAX=  31706
   dimension x,y,z NGX =    54 NGY =   54 NGZ =  180
   dimension x,y,z NGXF=   108 NGYF=  108 NGZF=  360
   support grid    NGXF=   108 NGYF=  108 NGZF=  360
   ions per type =               2   1   1   6
   NGX,Y,Z   is equivalent  to a cutoff of  13.00, 13.00, 12.76 a.u.
   NGXF,Y,Z  is equivalent  to a cutoff of  25.99, 25.99, 25.53 a.u.

 SYSTEM =  unknown system                          
 POSCAR =  Cr2 Si P Te6                            

 Startparameter for this run:
   NWRITE =      2    write-flag & timer
   PREC   = accura    normal or accurate (medium, high low for compatibility)
   ISTART =      0    job   : 0-new  1-cont  2-samecut
   ICHARG =      2    charge: 1-file 2-atom 10-const
   ISPIN  =      2    spin polarized calculation?
   LNONCOLLINEAR =      F non collinear calculations
   LSORBIT =      F    spin-orbit coupling
   INIWAV =      1    electr: 0-lowe 1-rand  2-diag
   LASPH  =      F    aspherical Exc in radial PAW
   METAGGA=      F    non-selfconsistent MetaGGA calc.

 Electronic Relaxation 1
   ENCUT  =  520.0 eV  38.22 Ry    6.18 a.u.  12.84 12.84 43.59*2*pi/ulx,y,z
   ENINI  =  520.0     initial cutoff
   ENAUG  =  402.1 eV  augmentation charge cutoff
   NELM   =    400;   NELMIN=  2; NELMDL=  0     # of ELM steps 
   EDIFF  = 0.1E-03   stopping-criterion for ELM
   LREAL  =      T    real-space projection
   NLSPLINE    = F    spline interpolate recip. space projectors
   LCOMPAT=      F    compatible to vasp.4.4
   GGA_COMPAT  = T    GGA compatible to vasp.4.4-vasp.4.6
   LMAXPAW     = -100 max onsite density
   LMAXMIX     =    2 max onsite mixed and CHGCAR
   VOSKOWN=      0    Vosko Wilk Nusair interpolation
   ROPT   =   -0.00025  -0.00025  -0.00025  -0.00025
 Ionic relaxation
   EDIFFG = 0.1E-02   stopping-criterion for IOM
   NSW    =     99    number of steps for IOM
   NBLOCK =      1;   KBLOCK =     99    inner block; outer block 
   IBRION =      2    ionic relax: 0-MD 1-quasi-New 2-CG
   NFREE  =      1    steps in history (QN), initial steepest desc. (CG)
   ISIF   =      3    stress and relaxation
   IWAVPR =     11    prediction:  0-non 1-charg 2-wave 3-comb
   ISYM   =      2    0-nonsym 1-usesym 2-fastsym
   LCORR  =      T    Harris-Foulkes like correction to forces

   POTIM  = 0.5000    time-step for ionic-motion
   TEIN   =    0.0    initial temperature
   TEBEG  =    0.0;   TEEND  =   0.0 temperature during run
   SMASS  =  -3.00    Nose mass-parameter (am)
   estimated Nose-frequenzy (Omega)   =  0.10E-29 period in steps =****** mass=  -0.109E-26a.u.
   SCALEE = 1.0000    scale energy and forces
   NPACO  =    256;   APACO  = 16.0  distance and # of slots for P.C.
   PSTRESS=    0.0 pullay stress

  Mass of Ions in am
   POMASS =  52.00 28.09 30.97127.60
  Ionic Valenz
   ZVAL   =   6.00  4.00  5.00  6.00
  Atomic Wigner-Seitz radii
   RWIGS  =  -1.00 -1.00 -1.00 -1.00
  virtual crystal weights 
   VCA    =   1.00  1.00  1.00  1.00
   NELECT =      57.0000    total number of electrons
   NUPDOWN=      -1.0000    fix difference up-down

 DOS related values:
   EMIN   =  10.00;   EMAX   =-10.00  energy-range for DOS
   EFERMI =   0.00
   ISMEAR =    -5;   SIGMA  =   0.05  broadening in eV -4-tet -1-fermi 0-gaus

 Electronic relaxation 2 (details)
   IALGO  =     38    algorithm
   LDIAG  =      T    sub-space diagonalisation (order eigenvalues)
   LSUBROT=      F    optimize rotation matrix (better conditioning)
   TURBO    =      0    0=normal 1=particle mesh
   IRESTART =      0    0=no restart 2=restart with 2 vectors
   NREBOOT  =      0    no. of reboots
   NMIN     =      0    reboot dimension
   EREF     =   0.00    reference energy to select bands
   IMIX   =      4    mixing-type and parameters
     AMIX     =   0.40;   BMIX     =  1.00
     AMIX_MAG =   1.60;   BMIX_MAG =  1.00
     AMIN     =   0.01
     WC   =   100.;   INIMIX=   1;  MIXPRE=   1;  MAXMIX= -45

 Intra band minimization:
   WEIMIN = 0.0010     energy-eigenvalue tresh-hold
   EBREAK =  0.52E-06  absolut break condition
   DEPER  =   0.30     relativ break condition  

   TIME   =   0.40     timestep for ELM

  volume/ion in A,a.u.               =      96.88       653.80
  Fermi-wavevector in a.u.,A,eV,Ry     =   0.636722  1.203230  5.516004  0.405415
  Thomas-Fermi vector in A             =   1.701488

 Write flags
   LWAVE        =      F    write WAVECAR
   LDOWNSAMPLE  =      F    k-point downsampling of WAVECAR
   LCHARG       =      T    write CHGCAR
   LVTOT        =      F    write LOCPOT, total local potential
   LVHAR        =      F    write LOCPOT, Hartree potential only
   LELF         =      F    write electronic localiz. function (ELF)
   LORBIT       =     11    0 simple, 1 ext, 2 COOP (PROOUT), +10 PAW based schemes


 Dipole corrections
   LMONO  =      F    monopole corrections only (constant potential shift)
   LDIPOL =      F    correct potential (dipole corrections)
   IDIPOL =      0    1-x, 2-y, 3-z, 4-all directions 
   EPSILON=  1.0000000 bulk dielectric constant

 Exchange correlation treatment:
   GGA     =    BO    GGA type
   LEXCH   =    42    internal setting for exchange type
   VOSKOWN=      0    Vosko Wilk Nusair interpolation
   LHFCALC =     F    Hartree Fock is set to
   LHFONE  =     F    Hartree Fock one center treatment
   AEXX    =    0.0000 exact exchange contribution

 vdW DFT:
   LUSE_VDW   =     T    switch on vdW DFT
   Zab_VDW    =-.8491    correlation parameter
   PARAM1     =0.1833
   PARAM2     =0.2200
   PARAM3     =0.0000
   -- rVV10 --
   BPARAM     = 6.3000
   CPARAM     = 0.0093

 Linear response parameters
   LEPSILON=     F    determine dielectric tensor
   LRPA    =     F    only Hartree local field effects (RPA)
   LNABLA  =     F    use nabla operator in PAW spheres
   LVEL    =     F    velocity operator in full k-point grid
   LINTERFAST=   F  fast interpolation
   KINTER  =     0    interpolate to denser k-point grid
   CSHIFT  =0.1000    complex shift for real part using Kramers Kronig
   OMEGAMAX=  -1.0    maximum frequency
   DEG_THRESHOLD= 0.2000000E-02 threshold for treating states as degnerate
   RTIME   =   -0.100 relaxation time in fs
  (WPLASMAI=    0.000 imaginary part of plasma frequency in eV, 0.658/RTIME)
   DFIELD  = 0.0000000 0.0000000 0.0000000 field for delta impulse in time

 Orbital magnetization related:
   ORBITALMAG=     F  switch on orbital magnetization
   LCHIMAG   =     F  perturbation theory with respect to B field
   DQ        =  0.001000  dq finite difference perturbation B field
   LLRAUG    =     F  two centre corrections for induced B field



--------------------------------------------------------------------------------------------------------


 conjugate gradient relaxation of ions
 charge density and potential will be updated during run
 spin polarized calculation
 Variant of blocked Davidson
 Davidson routine will perform the subspace rotation
 perform sub-space diagonalisation
    after iterative eigenvector-optimisation
 modified Broyden-mixing scheme, WC =      100.0
 initial mixing is a Kerker type mixing with AMIX =  0.4000 and BMIX =      1.0000
 Hartree-type preconditioning will be used
 using additional bands           19
 real space projection scheme for non local part
 use partial core corrections
 calculate Harris-corrections to forces   (improved forces if not selfconsistent)
 use gradient corrections 
 use of overlap-Matrix (Vanderbilt PP)
 Fermi weights with tetrahedron method with Bloechl corrections


--------------------------------------------------------------------------------------------------------


  energy-cutoff  :      520.00
  volume of cell :      968.84
      direct lattice vectors                 reciprocal lattice vectors
     6.907777000 -0.000000000  0.000000000     0.144764372 -0.083579742  0.000000000
     3.453888000  5.982310000  0.000000000     0.000000000  0.167159509 -0.000000000
     0.000000000  0.000000000 23.444588000    -0.000000000  0.000000000  0.042653767

  length of vectors
     6.907777000  6.907776433 23.444588000     0.167159495  0.167159509  0.042653767



 k-points in units of 2pi/SCALE and weight: Kpoints from vasprun.xml                
   0.00000000  0.00000000  0.00000000       0.040
   0.02895287 -0.01671595  0.00000000       0.240
   0.05790575 -0.03343190  0.00000000       0.240
   0.05790575  0.00000000  0.00000000       0.240
  -0.05790575  0.06686380  0.00000000       0.240

 k-points in reciprocal lattice and weights: Kpoints from vasprun.xml                
   0.00000000  0.00000000  0.00000000       0.040
   0.20000000  0.00000000  0.00000000       0.240
   0.40000000  0.00000000  0.00000000       0.240
   0.40000000  0.20000000  0.00000000       0.240
  -0.40000000  0.20000000  0.00000000       0.240

 position of ions in fractional coordinates (direct lattice) 
   0.33333300  0.33333300  0.49992500
   0.66666700  0.66666700  0.50007500
   0.00000000  0.00000000  0.44821600
   0.00000000  0.00000000  0.55178400
   0.62635700  0.00042000  0.57375200
   0.00042000  0.37322400  0.57375200
   0.37322400  0.62635700  0.57375200
   0.37364300  0.99958000  0.42624800
   0.99958000  0.62677600  0.42624800
   0.62677600  0.37364300  0.42624800

 position of ions in cartesian coordinates  (Angst):
   3.45388488  1.99410134 11.72053566
   6.90778012  3.98820866 11.72405234
   0.00000000  0.00000000 10.50823946
   0.00000000  0.00000000 12.93634854
   4.32818511  0.00251257 13.45137925
   1.29197516  2.23274167 13.45137925
   4.74151509  3.74706174 13.45137925
   6.03347989  5.97979743  9.99320875
   9.06968984  3.74956833  9.99320875
   5.62014991  2.23524826  9.99320875



--------------------------------------------------------------------------------------------------------


 k-point  1 :   0.0000 0.0000 0.0000  plane waves:   26073
 k-point  2 :   0.2000 0.0000 0.0000  plane waves:   26070
 k-point  3 :   0.4000 0.0000 0.0000  plane waves:   26086
 k-point  4 :   0.4000 0.2000 0.0000  plane waves:   26085
 k-point  5 :  -0.4000 0.2000 0.0000  plane waves:   26115

 maximum and minimum number of plane-waves per node :     26115    26070

 maximum number of plane-waves:     26115
 maximum index in each direction: 
   IXMAX=   13   IYMAX=   12   IZMAX=   43
   IXMIN=  -13   IYMIN=  -13   IZMIN=  -43


 serial   3D FFT for wavefunctions
 parallel 3D FFT for charge:
    minimum data exchange during FFTs selected (reduces bandwidth)


 total amount of memory used by VASP MPI-rank0   130447. kBytes
=======================================================================

   base      :      30000. kBytes
   nonlr-proj:       7947. kBytes
   fftplans  :      11247. kBytes
   grid      :      68332. kBytes
   one-center:        311. kBytes
   wavefun   :      12610. kBytes

     INWAV:  cpu time    0.0000: real time    0.0004
 Broyden mixing: mesh for mixing (old mesh)
   NGX = 25   NGY = 25   NGZ = 87
  (NGX  =108   NGY  =108   NGZ  =360)
  gives a total of  54375 points

 initial charge density was supplied:
 charge density of overlapping atoms calculated
 number of electron      57.0000000 magnetization      14.8000000
 keeping initial charge density in first step


--------------------------------------------------------------------------------------------------------


 Maximum index for non-local projection operator         7247
 Maximum index for augmentation-charges         2278 (set IRDMAX)


--------------------------------------------------------------------------------------------------------


 First call to EWALD:  gamma=   0.179
 Maximum number of real-space cells 4x 4x 1
 Maximum number of reciprocal cells 2x 2x 6

    FEWALD:  cpu time    0.0040: real time    0.0015


--------------------------------------- Iteration      1(   1)  ---------------------------------------


vdW kernel read from vdw_kernel.bindat
  0.0000  0.2424  0.5071  0.7962  1.1119  1.4567  1.8333  2.2446  2.6937  3.1842
  3.7199  4.3049  4.9438  5.6415  6.4036  7.2358  8.1446  9.1372 10.2212 11.4050
 12.6979 14.1099 15.6519 17.3360 19.1751 21.1837 23.3773 25.7729 28.3892 31.2465
 34.3669 37.7748 41.4965 45.5611 50.0000

    POTLOK:  cpu time   51.9800: real time   52.4370
    SETDIJ:  cpu time    0.0520: real time    0.0512
     EDDAV:  cpu time   22.5720: real time   22.7369
 BZINTS: Fermi energy:  6.288813; 57.000000 electrons
         Band energy:  26.512790;  BLOECHL correction: -0.068410
       DOS:  cpu time    0.0040: real time    0.0050
    --------------------------------------------
      LOOP:  cpu time   74.6080: real time   75.2302

 eigenvalue-minimisations  :   960
 total energy-change (2. order) : 0.3804838E+03  (-0.1641544E+04)
 number of electron      57.0000000 magnetization      14.8000000
 augmentation part       57.0000000 magnetization      14.8000000

 Free energy of the ion-electron system (eV)
  ---------------------------------------------------
  alpha Z        PSCENC =        11.30429057
  Ewald energy   TEWEN  =      6221.61188061
  -Hartree energ DENC   =     -8152.80360223
  -exchange      EXHF   =         0.00000000
  -V(xc)+E(xc)   XCENC  =      -217.75388920
  PAW double counting   =      1158.02895215     -849.28417285
  entropy T*S    EENTRO =         0.00000000
  eigenvalues    EBANDS =        26.51278955
  atomic energy  EATOM  =      2182.86754148
  Solvation  Ediel_sol  =         0.00000000
  ---------------------------------------------------
  free energy    TOTEN  =       380.48379008 eV

  energy without entropy =      380.48379008  energy(sigma->0) =      380.48379008


--------------------------------------------------------------------------------------------------------




--------------------------------------- Iteration      1(   2)  ---------------------------------------


     EDDAV:  cpu time   26.8360: real time   27.2014
 BZINTS: Fermi energy: -0.382756; 57.000000 electrons
         Band energy:-346.022604;  BLOECHL correction: -0.078435
       DOS:  cpu time    0.0080: real time    0.0044
    --------------------------------------------
      LOOP:  cpu time   26.8440: real time   27.2058

 eigenvalue-minimisations  :  1168
 total energy-change (2. order) :-0.3725354E+03  (-0.3476242E+03)
 number of electron      57.0000000 magnetization      14.8000000
 augmentation part       57.0000000 magnetization      14.8000000

 Free energy of the ion-electron system (eV)
  ---------------------------------------------------
  alpha Z        PSCENC =        11.30429057
  Ewald energy   TEWEN  =      6221.61188061
  -Hartree energ DENC   =     -8152.80360223
  -exchange      EXHF   =         0.00000000
  -V(xc)+E(xc)   XCENC  =      -217.75388920
  PAW double counting   =      1158.02895215     -849.28417285
  entropy T*S    EENTRO =         0.00000000
  eigenvalues    EBANDS =      -346.02260390
  atomic energy  EATOM  =      2182.86754148
  Solvation  Ediel_sol  =         0.00000000
  ---------------------------------------------------
  free energy    TOTEN  =         7.94839663 eV

  energy without entropy =        7.94839663  energy(sigma->0) =        7.94839663


--------------------------------------------------------------------------------------------------------




--------------------------------------- Iteration      1(   3)  ---------------------------------------


     EDDAV:  cpu time   29.6600: real time   29.8397
 BZINTS: Fermi energy: -1.787764; 57.000000 electrons
         Band energy:-395.490955;  BLOECHL correction: -0.025076
       DOS:  cpu time    0.0040: real time    0.0048
    --------------------------------------------
      LOOP:  cpu time   29.6640: real time   29.8445

 eigenvalue-minimisations  :  1296
 total energy-change (2. order) :-0.4946835E+02  (-0.4815448E+02)
 number of electron      57.0000000 magnetization      14.8000000
 augmentation part       57.0000000 magnetization      14.8000000

 Free energy of the ion-electron system (eV)
  ---------------------------------------------------
  alpha Z        PSCENC =        11.30429057
  Ewald energy   TEWEN  =      6221.61188061
  -Hartree energ DENC   =     -8152.80360223
  -exchange      EXHF   =         0.00000000
  -V(xc)+E(xc)   XCENC  =      -217.75388920
  PAW double counting   =      1158.02895215     -849.28417285
  entropy T*S    EENTRO =         0.00000000
  eigenvalues    EBANDS =      -395.49095479
  atomic energy  EATOM  =      2182.86754148
  Solvation  Ediel_sol  =         0.00000000
  ---------------------------------------------------
  free energy    TOTEN  =       -41.51995426 eV

  energy without entropy =      -41.51995426  energy(sigma->0) =      -41.51995426


--------------------------------------------------------------------------------------------------------




--------------------------------------- Iteration      1(   4)  ---------------------------------------


     EDDAV:  cpu time   32.1320: real time   32.2311
 BZINTS: Fermi energy: -1.879222; 57.000000 electrons
         Band energy:-398.026874;  BLOECHL correction: -0.026127
       DOS:  cpu time    0.0040: real time    0.0054
    --------------------------------------------
      LOOP:  cpu time   32.1360: real time   32.2365

 eigenvalue-minimisations  :  1424
 total energy-change (2. order) :-0.2535919E+01  (-0.2508974E+01)
 number of electron      57.0000000 magnetization      14.8000000
 augmentation part       57.0000000 magnetization      14.8000000

 Free energy of the ion-electron system (eV)
  ---------------------------------------------------
  alpha Z        PSCENC =        11.30429057
  Ewald energy   TEWEN  =      6221.61188061
  -Hartree energ DENC   =     -8152.80360223
  -exchange      EXHF   =         0.00000000
  -V(xc)+E(xc)   XCENC  =      -217.75388920
  PAW double counting   =      1158.02895215     -849.28417285
  entropy T*S    EENTRO =         0.00000000
  eigenvalues    EBANDS =      -398.02687353
  atomic energy  EATOM  =      2182.86754148
  Solvation  Ediel_sol  =         0.00000000
  ---------------------------------------------------
  free energy    TOTEN  =       -44.05587300 eV

  energy without entropy =      -44.05587300  energy(sigma->0) =      -44.05587300


--------------------------------------------------------------------------------------------------------




--------------------------------------- Iteration      1(   5)  ---------------------------------------


     EDDAV:  cpu time   31.2200: real time   31.6498
 BZINTS: Fermi energy: -1.883945; 57.000000 electrons
         Band energy:-398.080458;  BLOECHL correction: -0.026015
       DOS:  cpu time    0.0080: real time    0.0062
    CHARGE:  cpu time    1.9040: real time    1.9150
    MIXING:  cpu time    0.0400: real time    0.0407
    --------------------------------------------
      LOOP:  cpu time   33.1720: real time   33.6116

 eigenvalue-minimisations  :  1392
 total energy-change (2. order) :-0.5358412E-01  (-0.5368986E-01)
 number of electron      57.0000000 magnetization      13.8838596
 augmentation part       -4.2316441 magnetization      11.1189061

 Broyden mixing:
  rms(total) = 0.14733E+01    rms(broyden)= 0.14733E+01
  rms(prec ) = 0.15573E+01
  weight for this iteration     100.00

 Free energy of the ion-electron system (eV)
  ---------------------------------------------------
  alpha Z        PSCENC =        11.30429057
  Ewald energy   TEWEN  =      6221.61188061
  -Hartree energ DENC   =     -8152.80360223
  -exchange      EXHF   =         0.00000000
  -V(xc)+E(xc)   XCENC  =      -217.75388920
  PAW double counting   =      1158.02895215     -849.28417285
  entropy T*S    EENTRO =         0.00000000
  eigenvalues    EBANDS =      -398.08045765
  atomic energy  EATOM  =      2182.86754148
  Solvation  Ediel_sol  =         0.00000000
  ---------------------------------------------------
  free energy    TOTEN  =       -44.10945712 eV

  energy without entropy =      -44.10945712  energy(sigma->0) =      -44.10945712


--------------------------------------------------------------------------------------------------------




--------------------------------------- Iteration      1(   6)  ---------------------------------------


    POTLOK:  cpu time   51.0120: real time   52.0046
    SETDIJ:  cpu time    0.0520: real time    0.0502
     EDDAV:  cpu time   33.4160: real time   33.7537
 BZINTS: Fermi energy: -3.238509; 57.000000 electrons
         Band energy:-427.759578;  BLOECHL correction: -0.017374
       DOS:  cpu time    0.0040: real time    0.0069
    CHARGE:  cpu time    1.8680: real time    1.9534
    MIXING:  cpu time    0.0440: real time    0.0448
    --------------------------------------------
      LOOP:  cpu time   86.3960: real time   87.8138

 eigenvalue-minimisations  :  1488
 total energy-change (2. order) :-0.4242263E+01  (-0.2610922E+01)
 number of electron      56.9999999 magnetization      13.5774359
 augmentation part        1.6195554 magnetization      11.3715302

 Broyden mixing:
  rms(total) = 0.25352E+01    rms(broyden)= 0.25352E+01
  rms(prec ) = 0.28688E+01
  weight for this iteration     100.00

 eigenvalues of (default mixing * dielectric matrix)
  average eigenvalue GAMMA=   0.4154
  0.4154

 Free energy of the ion-electron system (eV)
  ---------------------------------------------------
  alpha Z        PSCENC =        11.30429057
  Ewald energy   TEWEN  =      6221.61188061
  -Hartree energ DENC   =     -8129.90322430
  -exchange      EXHF   =         0.00000000
  -V(xc)+E(xc)   XCENC  =      -219.50866861
  PAW double counting   =      1145.84002501     -832.80398702
  entropy T*S    EENTRO =         0.00000000
  eigenvalues    EBANDS =      -427.75957800
  atomic energy  EATOM  =      2182.86754148
  Solvation  Ediel_sol  =         0.00000000
  ---------------------------------------------------
  free energy    TOTEN  =       -48.35172026 eV

  energy without entropy =      -48.35172026  energy(sigma->0) =      -48.35172026


--------------------------------------------------------------------------------------------------------




--------------------------------------- Iteration      1(   7)  ---------------------------------------


    POTLOK:  cpu time   51.7600: real time   52.1460
    SETDIJ:  cpu time    0.0440: real time    0.0416
     EDDAV:  cpu time   29.6840: real time   30.3577
 BZINTS: Fermi energy: -1.818496; 57.000000 electrons
         Band energy:-391.739114;  BLOECHL correction: -0.029339
       DOS:  cpu time    0.0040: real time    0.0077
    CHARGE:  cpu time    1.9240: real time    1.9412
    MIXING:  cpu time    0.0400: real time    0.0406
    --------------------------------------------
      LOOP:  cpu time   83.4560: real time   84.5347

 eigenvalue-minimisations  :  1328
 total energy-change (2. order) : 0.6200888E+01  (-0.6569393E+01)
 number of electron      57.0000000 magnetization      12.9212803
 augmentation part       -3.6935367 magnetization      10.3886615

 Broyden mixing:
  rms(total) = 0.91575E+00    rms(broyden)= 0.91573E+00
  rms(prec ) = 0.98138E+00
  weight for this iteration     100.00

 eigenvalues of (default mixing * dielectric matrix)
  average eigenvalue GAMMA=   0.5053
  0.7688  0.2419

 Free energy of the ion-electron system (eV)
  ---------------------------------------------------
  alpha Z        PSCENC =        11.30429057
  Ewald energy   TEWEN  =      6221.61188061
  -Hartree energ DENC   =     -8154.89571374
  -exchange      EXHF   =         0.00000000
  -V(xc)+E(xc)   XCENC  =      -219.84772065
  PAW double counting   =      1197.35849274     -888.81048898
  entropy T*S    EENTRO =         0.00000000
  eigenvalues    EBANDS =      -391.73911400
  atomic energy  EATOM  =      2182.86754148
  Solvation  Ediel_sol  =         0.00000000
  ---------------------------------------------------
  free energy    TOTEN  =       -42.15083197 eV

  energy without entropy =      -42.15083197  energy(sigma->0) =      -42.15083197


--------------------------------------------------------------------------------------------------------




--------------------------------------- Iteration      1(   8)  ---------------------------------------


    POTLOK:  cpu time   51.6960: real time   52.3388
    SETDIJ:  cpu time    0.0480: real time    0.0486
     EDDAV:  cpu time   27.0680: real time   27.5934
 BZINTS: Fermi energy: -1.948362; 57.000000 electrons
         Band energy:-394.933700;  BLOECHL correction: -0.025149
       DOS:  cpu time    0.0080: real time    0.0066
    CHARGE:  cpu time    1.9440: real time    1.9490
    MIXING:  cpu time    0.0440: real time    0.0423
    --------------------------------------------
      LOOP:  cpu time   80.8080: real time   81.9786

 eigenvalue-minimisations  :  1184
 total energy-change (2. order) : 0.8729033E-02  (-0.4111040E+00)
 number of electron      57.0000000 magnetization      11.3870408
 augmentation part       -3.2116076 magnetization       9.1204946

 Broyden mixing:
  rms(total) = 0.56694E+00    rms(broyden)= 0.56694E+00
  rms(prec ) = 0.59162E+00
  weight for this iteration     100.00

 eigenvalues of (default mixing * dielectric matrix)
  average eigenvalue GAMMA=   0.7786
  0.2620  1.0369  1.0369

 Free energy of the ion-electron system (eV)
  ---------------------------------------------------
  alpha Z        PSCENC =        11.30429057
  Ewald energy   TEWEN  =      6221.61188061
  -Hartree energ DENC   =     -8152.02607315
  -exchange      EXHF   =         0.00000000
  -V(xc)+E(xc)   XCENC  =      -219.56421956
  PAW double counting   =      1202.30122114     -893.70304425
  entropy T*S    EENTRO =         0.00000000
  eigenvalues    EBANDS =      -394.93369977
  atomic energy  EATOM  =      2182.86754148
  Solvation  Ediel_sol  =         0.00000000
  ---------------------------------------------------
  free energy    TOTEN  =       -42.14210294 eV

  energy without entropy =      -42.14210294  energy(sigma->0) =      -42.14210294


--------------------------------------------------------------------------------------------------------




--------------------------------------- Iteration      1(   9)  ---------------------------------------


    POTLOK:  cpu time   51.9120: real time   52.0514
    SETDIJ:  cpu time    0.0480: real time    0.0480
     EDDAV:  cpu time   28.4080: real time   28.7100
 BZINTS: Fermi energy: -1.990156; 57.000000 electrons
         Band energy:-393.586362;  BLOECHL correction: -0.029664
       DOS:  cpu time    0.0040: real time    0.0085
    CHARGE:  cpu time    1.9520: real time    1.9565
    MIXING:  cpu time    0.0480: real time    0.0449
    --------------------------------------------
      LOOP:  cpu time   82.3720: real time   82.8193

 eigenvalue-minimisations  :  1248
 total energy-change (2. order) :-0.4320288E+00  (-0.2231945E+00)
 number of electron      57.0000000 magnetization      10.0792579
 augmentation part       -2.5234768 magnetization       8.2928608

 Broyden mixing:
  rms(total) = 0.33197E+00    rms(broyden)= 0.33196E+00
  rms(prec ) = 0.33580E+00
  weight for this iteration     100.00

 eigenvalues of (default mixing * dielectric matrix)
  average eigenvalue GAMMA=   1.0332
  1.6017  1.6017  0.2600  0.6696

 Free energy of the ion-electron system (eV)
  ---------------------------------------------------
  alpha Z        PSCENC =        11.30429057
  Ewald energy   TEWEN  =      6221.61188061
  -Hartree energ DENC   =     -8154.58651757
  -exchange      EXHF   =         0.00000000
  -V(xc)+E(xc)   XCENC  =      -218.58253208
  PAW double counting   =      1221.60137194     -913.20380440
  entropy T*S    EENTRO =         0.00000000
  eigenvalues    EBANDS =      -393.58636225
  atomic energy  EATOM  =      2182.86754148
  Solvation  Ediel_sol  =         0.00000000
  ---------------------------------------------------
  free energy    TOTEN  =       -42.57413170 eV

  energy without entropy =      -42.57413170  energy(sigma->0) =      -42.57413170


--------------------------------------------------------------------------------------------------------




--------------------------------------- Iteration      1(  10)  ---------------------------------------


    POTLOK:  cpu time   51.9320: real time   52.1436
    SETDIJ:  cpu time    0.0520: real time    0.0513
     EDDAV:  cpu time   27.8680: real time   28.4683
 BZINTS: Fermi energy: -1.940305; 57.000000 electrons
         Band energy:-391.263030;  BLOECHL correction: -0.039336
       DOS:  cpu time    0.0080: real time    0.0075
    CHARGE:  cpu time    1.9280: real time    1.9435
    MIXING:  cpu time    0.0320: real time    0.0450
    --------------------------------------------
      LOOP:  cpu time   81.8200: real time   82.6594

 eigenvalue-minimisations  :  1232
 total energy-change (2. order) :-0.4544624E+00  (-0.8647277E-01)
 number of electron      57.0000000 magnetization       9.6063194
 augmentation part       -2.3621039 magnetization       8.1006285

 Broyden mixing:
  rms(total) = 0.34302E+00    rms(broyden)= 0.34302E+00
  rms(prec ) = 0.36133E+00
  weight for this iteration     100.00

 eigenvalues of (default mixing * dielectric matrix)
  average eigenvalue GAMMA=   1.0205
  2.3861  1.2570  0.7451  0.2598  0.4547

 Free energy of the ion-electron system (eV)
  ---------------------------------------------------
  alpha Z        PSCENC =        11.30429057
  Ewald energy   TEWEN  =      6221.61188061
  -Hartree energ DENC   =     -8157.58462635
  -exchange      EXHF   =         0.00000000
  -V(xc)+E(xc)   XCENC  =      -217.66877917
  PAW double counting   =      1226.62997175     -918.92584256
  entropy T*S    EENTRO =         0.00000000
  eigenvalues    EBANDS =      -391.26303039
  atomic energy  EATOM  =      2182.86754148
  Solvation  Ediel_sol  =         0.00000000
  ---------------------------------------------------
  free energy    TOTEN  =       -43.02859405 eV

  energy without entropy =      -43.02859405  energy(sigma->0) =      -43.02859405


--------------------------------------------------------------------------------------------------------




--------------------------------------- Iteration      1(  11)  ---------------------------------------


    POTLOK:  cpu time   52.2800: real time   52.5090
    SETDIJ:  cpu time    0.0480: real time    0.0477
     EDDAV:  cpu time   27.9640: real time   28.1830
 BZINTS: Fermi energy: -1.913721; 57.000000 electrons
         Band energy:-390.521223;  BLOECHL correction: -0.039013
       DOS:  cpu time    0.0040: real time    0.0079
    CHARGE:  cpu time    1.9600: real time    1.9640
    MIXING:  cpu time    0.0600: real time    0.0744
    --------------------------------------------
      LOOP:  cpu time   82.3160: real time   82.7860

 eigenvalue-minimisations  :  1216
 total energy-change (2. order) :-0.1251244E+00  (-0.6729244E-01)
 number of electron      57.0000000 magnetization       8.6747836
 augmentation part       -2.4015710 magnetization       7.2122283

 Broyden mixing:
  rms(total) = 0.28491E+00    rms(broyden)= 0.28491E+00
  rms(prec ) = 0.29630E+00
  weight for this iteration     100.00

 eigenvalues of (default mixing * dielectric matrix)
  average eigenvalue GAMMA=   1.0596
  2.9719  1.0993  1.0993  0.6350  0.2602  0.2916

 Free energy of the ion-electron system (eV)
  ---------------------------------------------------
  alpha Z        PSCENC =        11.30429057
  Ewald energy   TEWEN  =      6221.61188061
  -Hartree energ DENC   =     -8158.33465833
  -exchange      EXHF   =         0.00000000
  -V(xc)+E(xc)   XCENC  =      -217.67072188
  PAW double counting   =      1227.78658756     -920.19741539
  entropy T*S    EENTRO =         0.00000000
  eigenvalues    EBANDS =      -390.52122308
  atomic energy  EATOM  =      2182.86754148
  Solvation  Ediel_sol  =         0.00000000
  ---------------------------------------------------
  free energy    TOTEN  =       -43.15371846 eV

  energy without entropy =      -43.15371846  energy(sigma->0) =      -43.15371846


--------------------------------------------------------------------------------------------------------




--------------------------------------- Iteration      1(  12)  ---------------------------------------


    POTLOK:  cpu time   52.1560: real time   52.2779
    SETDIJ:  cpu time    0.0560: real time    0.0529
     EDDAV:  cpu time   29.1440: real time   30.1118
 BZINTS: Fermi energy: -1.868286; 57.000000 electrons
         Band energy:-389.687793;  BLOECHL correction: -0.036424
       DOS:  cpu time    0.0040: real time    0.0072
    CHARGE:  cpu time    1.9480: real time    1.9534
    MIXING:  cpu time    0.0480: real time    0.0467
    --------------------------------------------
      LOOP:  cpu time   83.3560: real time   84.4498

 eigenvalue-minimisations  :  1312
 total energy-change (2. order) :-0.2906669E+00  (-0.3190632E+00)
 number of electron      57.0000000 magnetization       7.6271016
 augmentation part       -2.5201335 magnetization       6.1948797

 Broyden mixing:
  rms(total) = 0.19389E+00    rms(broyden)= 0.19380E+00
  rms(prec ) = 0.19877E+00
  weight for this iteration     100.00

 eigenvalues of (default mixing * dielectric matrix)
  average eigenvalue GAMMA=   1.0776
  3.2932  1.2305  1.2305  0.6776  0.5720  0.2597  0.2793

 Free energy of the ion-electron system (eV)
  ---------------------------------------------------
  alpha Z        PSCENC =        11.30429057
  Ewald energy   TEWEN  =      6221.61188061
  -Hartree energ DENC   =     -8159.05670095
  -exchange      EXHF   =         0.00000000
  -V(xc)+E(xc)   XCENC  =      -218.04890661
  PAW double counting   =      1228.57254757     -921.00724551
  entropy T*S    EENTRO =         0.00000000
  eigenvalues    EBANDS =      -389.68779251
  atomic energy  EATOM  =      2182.86754148
  Solvation  Ediel_sol  =         0.00000000
  ---------------------------------------------------
  free energy    TOTEN  =       -43.44438535 eV

  energy without entropy =      -43.44438535  energy(sigma->0) =      -43.44438535


--------------------------------------------------------------------------------------------------------




--------------------------------------- Iteration      1(  13)  ---------------------------------------


    POTLOK:  cpu time   52.3320: real time   52.6419
    SETDIJ:  cpu time    0.0480: real time    0.0501
     EDDAV:  cpu time   24.8840: real time   24.9663
 BZINTS: Fermi energy: -1.831508; 57.000000 electrons
         Band energy:-389.676351;  BLOECHL correction: -0.034314
       DOS:  cpu time    0.0040: real time    0.0070
    CHARGE:  cpu time    1.9480: real time    1.9496
    MIXING:  cpu time    0.0440: real time    0.0448
    --------------------------------------------
      LOOP:  cpu time   79.2600: real time   79.6597

 eigenvalue-minimisations  :  1072
 total energy-change (2. order) : 0.1541632E+00  (-0.2069250E+01)
 number of electron      57.0000000 magnetization       6.3559617
 augmentation part       -2.5899843 magnetization       4.9083139

 Broyden mixing:
  rms(total) = 0.13951E+00    rms(broyden)= 0.13943E+00
  rms(prec ) = 0.14146E+00
  weight for this iteration     100.00

 eigenvalues of (default mixing * dielectric matrix)
  average eigenvalue GAMMA=   1.3718
  5.3992  1.5548  1.5548  0.8828  0.6308  0.4123  0.2599  0.2796

 Free energy of the ion-electron system (eV)
  ---------------------------------------------------
  alpha Z        PSCENC =        11.30429057
  Ewald energy   TEWEN  =      6221.61188061
  -Hartree energ DENC   =     -8158.51661607
  -exchange      EXHF   =         0.00000000
  -V(xc)+E(xc)   XCENC  =      -218.42454463
  PAW double counting   =      1224.60696999     -917.06339281
  entropy T*S    EENTRO =         0.00000000
  eigenvalues    EBANDS =      -389.67635125
  atomic energy  EATOM  =      2182.86754148
  Solvation  Ediel_sol  =         0.00000000
  ---------------------------------------------------
  free energy    TOTEN  =       -43.29022211 eV

  energy without entropy =      -43.29022211  energy(sigma->0) =      -43.29022211


--------------------------------------------------------------------------------------------------------




--------------------------------------- Iteration      1(  14)  ---------------------------------------


    POTLOK:  cpu time   51.3000: real time   51.4443
    SETDIJ:  cpu time    0.0840: real time    0.0865
     EDDAV:  cpu time   27.5040: real time   27.5710
 BZINTS: Fermi energy: -1.780153; 57.000000 electrons
         Band energy:-389.063063;  BLOECHL correction: -0.031518
       DOS:  cpu time    0.0040: real time    0.0054
    CHARGE:  cpu time    1.9200: real time    1.9629
    MIXING:  cpu time    0.0440: real time    0.0454
    --------------------------------------------
      LOOP:  cpu time   80.8560: real time   81.1156

 eigenvalue-minimisations  :  1200
 total energy-change (2. order) :-0.1996033E+00  (-0.4634346E-01)
 number of electron      57.0000000 magnetization       5.8339350
 augmentation part       -2.6654670 magnetization       4.4332367

 Broyden mixing:
  rms(total) = 0.69386E-01    rms(broyden)= 0.69379E-01
  rms(prec ) = 0.71808E-01
  weight for this iteration     100.00

 eigenvalues of (default mixing * dielectric matrix)
  average eigenvalue GAMMA=   1.5734
  7.5578  1.6937  1.2478  1.2478  0.6689  0.6024  0.6024  0.2599  0.2797

 Free energy of the ion-electron system (eV)
  ---------------------------------------------------
  alpha Z        PSCENC =        11.30429057
  Ewald energy   TEWEN  =      6221.61188061
  -Hartree energ DENC   =     -8159.02678913
  -exchange      EXHF   =         0.00000000
  -V(xc)+E(xc)   XCENC  =      -218.74829317
  PAW double counting   =      1221.85654058     -914.29193367
  entropy T*S    EENTRO =         0.00000000
  eigenvalues    EBANDS =      -389.06306268
  atomic energy  EATOM  =      2182.86754148
  Solvation  Ediel_sol  =         0.00000000
  ---------------------------------------------------
  free energy    TOTEN  =       -43.48982541 eV

  energy without entropy =      -43.48982541  energy(sigma->0) =      -43.48982541


--------------------------------------------------------------------------------------------------------




--------------------------------------- Iteration      1(  15)  ---------------------------------------


    POTLOK:  cpu time   50.9600: real time   51.0609
    SETDIJ:  cpu time    0.0480: real time    0.0490
     EDDAV:  cpu time   26.1080: real time   26.1733
 BZINTS: Fermi energy: -1.760221; 57.000000 electrons
         Band energy:-388.262552;  BLOECHL correction: -0.031151
       DOS:  cpu time    0.0040: real time    0.0065
    CHARGE:  cpu time    1.9080: real time    1.9510
    MIXING:  cpu time    0.0480: real time    0.0470
    --------------------------------------------
      LOOP:  cpu time   79.0760: real time   79.2877

 eigenvalue-minimisations  :  1136
 total energy-change (2. order) :-0.3784581E-01  (-0.3348428E-02)
 number of electron      57.0000000 magnetization       5.6111812
 augmentation part       -2.6650765 magnetization       4.2414726

 Broyden mixing:
  rms(total) = 0.43659E-01    rms(broyden)= 0.43658E-01
  rms(prec ) = 0.45933E-01
  weight for this iteration     100.00

 eigenvalues of (default mixing * dielectric matrix)
  average eigenvalue GAMMA=   1.7268
  8.9660  2.2267  1.3671  1.3671  0.8331  0.8331  0.6193  0.5165  0.2599  0.2795

 Free energy of the ion-electron system (eV)
  ---------------------------------------------------
  alpha Z        PSCENC =        11.30429057
  Ewald energy   TEWEN  =      6221.61188061
  -Hartree energ DENC   =     -8159.90407987
  -exchange      EXHF   =         0.00000000
  -V(xc)+E(xc)   XCENC  =      -218.80724269
  PAW double counting   =      1221.28849213     -913.62600135
  entropy T*S    EENTRO =         0.00000000
  eigenvalues    EBANDS =      -388.26255211
  atomic energy  EATOM  =      2182.86754148
  Solvation  Ediel_sol  =         0.00000000
  ---------------------------------------------------
  free energy    TOTEN  =       -43.52767122 eV

  energy without entropy =      -43.52767122  energy(sigma->0) =      -43.52767122


--------------------------------------------------------------------------------------------------------




--------------------------------------- Iteration      1(  16)  ---------------------------------------


    POTLOK:  cpu time   50.9800: real time   51.1192
    SETDIJ:  cpu time    0.0520: real time    0.0515
     EDDAV:  cpu time   24.4440: real time   24.4878
 BZINTS: Fermi energy: -1.744817; 57.000000 electrons
         Band energy:-387.368264;  BLOECHL correction: -0.031148
       DOS:  cpu time    0.0040: real time    0.0071
    CHARGE:  cpu time    1.9520: real time    1.9528
    MIXING:  cpu time    0.0480: real time    0.0475
    --------------------------------------------
      LOOP:  cpu time   77.4800: real time   77.6658

 eigenvalue-minimisations  :  1056
 total energy-change (2. order) :-0.1724498E-01  (-0.1206154E-02)
 number of electron      57.0000000 magnetization       5.5491745
 augmentation part       -2.6516169 magnetization       4.1952139

 Broyden mixing:
  rms(total) = 0.18421E-01    rms(broyden)= 0.18421E-01
  rms(prec ) = 0.20189E-01
  weight for this iteration     100.00

 eigenvalues of (default mixing * dielectric matrix)
  average eigenvalue GAMMA=   1.7927
  9.8231  2.5831  1.4432  1.4432  1.1681  0.8731  0.7161  0.6039  0.5271  0.2599
  0.2795

 Free energy of the ion-electron system (eV)
  ---------------------------------------------------
  alpha Z        PSCENC =        11.30429057
  Ewald energy   TEWEN  =      6221.61188061
  -Hartree energ DENC   =     -8160.88709927
  -exchange      EXHF   =         0.00000000
  -V(xc)+E(xc)   XCENC  =      -218.81640220
  PAW double counting   =      1221.00609118     -913.26295446
  entropy T*S    EENTRO =         0.00000000
  eigenvalues    EBANDS =      -387.36826411
  atomic energy  EATOM  =      2182.86754148
  Solvation  Ediel_sol  =         0.00000000
  ---------------------------------------------------
  free energy    TOTEN  =       -43.54491619 eV

  energy without entropy =      -43.54491619  energy(sigma->0) =      -43.54491619


--------------------------------------------------------------------------------------------------------




--------------------------------------- Iteration      1(  17)  ---------------------------------------


    POTLOK:  cpu time   51.0160: real time   51.0908
    SETDIJ:  cpu time    0.0480: real time    0.0488
     EDDAV:  cpu time   23.2320: real time   23.2771
 BZINTS: Fermi energy: -1.737535; 57.000000 electrons
         Band energy:-386.923482;  BLOECHL correction: -0.031347
       DOS:  cpu time    0.0040: real time    0.0065
    CHARGE:  cpu time    1.9720: real time    1.9721
    MIXING:  cpu time    0.0520: real time    0.0509
    --------------------------------------------
      LOOP:  cpu time   76.3240: real time   76.4462

 eigenvalue-minimisations  :   992
 total energy-change (2. order) :-0.9090592E-02  (-0.5112907E-03)
 number of electron      57.0000000 magnetization       5.5445153
 augmentation part       -2.6421463 magnetization       4.1965794

 Broyden mixing:
  rms(total) = 0.95669E-02    rms(broyden)= 0.95669E-02
  rms(prec ) = 0.11033E-01
  weight for this iteration     100.00

 eigenvalues of (default mixing * dielectric matrix)
  average eigenvalue GAMMA=   1.7505
  9.9275  2.6589  1.4583  1.4583  1.4660  0.8963  0.7356  0.7356  0.6132  0.5175
  0.2599  0.2795

 Free energy of the ion-electron system (eV)
  ---------------------------------------------------
  alpha Z        PSCENC =        11.30429057
  Ewald energy   TEWEN  =      6221.61188061
  -Hartree energ DENC   =     -8161.36920995
  -exchange      EXHF   =         0.00000000
  -V(xc)+E(xc)   XCENC  =      -218.82034576
  PAW double counting   =      1221.23380444     -913.45848588
  entropy T*S    EENTRO =         0.00000000
  eigenvalues    EBANDS =      -386.92348230
  atomic energy  EATOM  =      2182.86754148
  Solvation  Ediel_sol  =         0.00000000
  ---------------------------------------------------
  free energy    TOTEN  =       -43.55400679 eV

  energy without entropy =      -43.55400679  energy(sigma->0) =      -43.55400679


--------------------------------------------------------------------------------------------------------




--------------------------------------- Iteration      1(  18)  ---------------------------------------


    POTLOK:  cpu time   51.5120: real time   51.5280
    SETDIJ:  cpu time    0.0480: real time    0.0485
     EDDAV:  cpu time   23.8240: real time   23.9009
 BZINTS: Fermi energy: -1.733283; 57.000000 electrons
         Band energy:-386.665080;  BLOECHL correction: -0.031425
       DOS:  cpu time    0.0080: real time    0.0073
    CHARGE:  cpu time    1.9400: real time    1.9425
    MIXING:  cpu time    0.0520: real time    0.0507
    --------------------------------------------
      LOOP:  cpu time   77.3840: real time   77.4778

 eigenvalue-minimisations  :  1024
 total energy-change (2. order) :-0.3110030E-02  (-0.9121019E-04)
 number of electron      57.0000000 magnetization       5.5416730
 augmentation part       -2.6390019 magnetization       4.1955015

 Broyden mixing:
  rms(total) = 0.56343E-02    rms(broyden)= 0.56343E-02
  rms(prec ) = 0.71547E-02
  weight for this iteration     100.00

 eigenvalues of (default mixing * dielectric matrix)
  average eigenvalue GAMMA=   1.7316
  9.9513  2.7127  2.0273  1.4470  1.4470  0.2599  0.2795  0.8880  0.8880  0.8292
  0.5254  0.5968  0.6581

 Free energy of the ion-electron system (eV)
  ---------------------------------------------------
  alpha Z        PSCENC =        11.30429057
  Ewald energy   TEWEN  =      6221.61188061
  -Hartree energ DENC   =     -8161.64152440
  -exchange      EXHF   =         0.00000000
  -V(xc)+E(xc)   XCENC  =      -218.80840064
  PAW double counting   =      1221.43028078     -913.65610540
  entropy T*S    EENTRO =         0.00000000
  eigenvalues    EBANDS =      -386.66507982
  atomic energy  EATOM  =      2182.86754148
  Solvation  Ediel_sol  =         0.00000000
  ---------------------------------------------------
  free energy    TOTEN  =       -43.55711682 eV

  energy without entropy =      -43.55711682  energy(sigma->0) =      -43.55711682


--------------------------------------------------------------------------------------------------------




--------------------------------------- Iteration      1(  19)  ---------------------------------------


    POTLOK:  cpu time   50.9560: real time   51.0909
    SETDIJ:  cpu time    0.0480: real time    0.0484
     EDDAV:  cpu time   22.9720: real time   23.1793
 BZINTS: Fermi energy: -1.729885; 57.000000 electrons
         Band energy:-386.456248;  BLOECHL correction: -0.031441
       DOS:  cpu time    0.0040: real time    0.0070
    CHARGE:  cpu time    1.9240: real time    1.9273
    MIXING:  cpu time    0.0520: real time    0.0513
    --------------------------------------------
      LOOP:  cpu time   75.9560: real time   76.3041

 eigenvalue-minimisations  :   976
 total energy-change (2. order) :-0.1979509E-02  (-0.4581931E-04)
 number of electron      57.0000000 magnetization       5.5403434
 augmentation part       -2.6384323 magnetization       4.1944680

 Broyden mixing:
  rms(total) = 0.33231E-02    rms(broyden)= 0.33231E-02
  rms(prec ) = 0.51612E-02
  weight for this iteration     100.00

 eigenvalues of (default mixing * dielectric matrix)
  average eigenvalue GAMMA=   1.7277
  9.9577  2.8745  2.4802  1.4544  1.4544  0.2599  0.2795  1.0028  1.0028  0.9401
  0.5213  0.6058  0.6773  0.6773

 Free energy of the ion-electron system (eV)
  ---------------------------------------------------
  alpha Z        PSCENC =        11.30429057
  Ewald energy   TEWEN  =      6221.61188061
  -Hartree energ DENC   =     -8161.85513071
  -exchange      EXHF   =         0.00000000
  -V(xc)+E(xc)   XCENC  =      -218.80741258
  PAW double counting   =      1221.52986822     -913.75388599
  entropy T*S    EENTRO =         0.00000000
  eigenvalues    EBANDS =      -386.45624792
  atomic energy  EATOM  =      2182.86754148
  Solvation  Ediel_sol  =         0.00000000
  ---------------------------------------------------
  free energy    TOTEN  =       -43.55909633 eV

  energy without entropy =      -43.55909633  energy(sigma->0) =      -43.55909633


--------------------------------------------------------------------------------------------------------




--------------------------------------- Iteration      1(  20)  ---------------------------------------


    POTLOK:  cpu time   51.0200: real time   51.0896
    SETDIJ:  cpu time    0.0480: real time    0.0483
     EDDAV:  cpu time   21.3320: real time   21.4767
 BZINTS: Fermi energy: -1.725585; 57.000000 electrons
         Band energy:-386.198027;  BLOECHL correction: -0.031444
       DOS:  cpu time    0.0040: real time    0.0073
    CHARGE:  cpu time    1.9440: real time    1.9595
    MIXING:  cpu time    0.0520: real time    0.0522
    --------------------------------------------
      LOOP:  cpu time   74.4000: real time   74.6336

 eigenvalue-minimisations  :   896
 total energy-change (2. order) :-0.1116736E-02  (-0.4022180E-04)
 number of electron      57.0000000 magnetization       5.5393409
 augmentation part       -2.6379228 magnetization       4.1939286

 Broyden mixing:
  rms(total) = 0.18811E-02    rms(broyden)= 0.18811E-02
  rms(prec ) = 0.40317E-02
  weight for this iteration     100.00

 eigenvalues of (default mixing * dielectric matrix)
  average eigenvalue GAMMA=   1.7265
  9.9598  3.2566  2.6066  1.4295  1.4295  1.4475  0.9963  0.9963  0.2599  0.2795
  0.7405  0.7405  0.5229  0.5991  0.6335

 Free energy of the ion-electron system (eV)
  ---------------------------------------------------
  alpha Z        PSCENC =        11.30429057
  Ewald energy   TEWEN  =      6221.61188061
  -Hartree energ DENC   =     -8162.11774319
  -exchange      EXHF   =         0.00000000
  -V(xc)+E(xc)   XCENC  =      -218.80409544
  PAW double counting   =      1221.55636171     -913.78042225
  entropy T*S    EENTRO =         0.00000000
  eigenvalues    EBANDS =      -386.19802656
  atomic energy  EATOM  =      2182.86754148
  Solvation  Ediel_sol  =         0.00000000
  ---------------------------------------------------
  free energy    TOTEN  =       -43.56021306 eV

  energy without entropy =      -43.56021306  energy(sigma->0) =      -43.56021306


--------------------------------------------------------------------------------------------------------




--------------------------------------- Iteration      1(  21)  ---------------------------------------


    POTLOK:  cpu time   50.8480: real time   51.1205
    SETDIJ:  cpu time    0.0480: real time    0.0489
     EDDAV:  cpu time   21.4240: real time   21.4537
 BZINTS: Fermi energy: -1.720353; 57.000000 electrons
         Band energy:-385.898046;  BLOECHL correction: -0.031453
       DOS:  cpu time    0.0040: real time    0.0070
    CHARGE:  cpu time    1.9320: real time    1.9341
    MIXING:  cpu time    0.0520: real time    0.0534
    --------------------------------------------
      LOOP:  cpu time   74.3080: real time   74.6175

 eigenvalue-minimisations  :   896
 total energy-change (2. order) :-0.3071174E-03  (-0.3393420E-04)
 number of electron      57.0000000 magnetization       5.5379721
 augmentation part       -2.6379117 magnetization       4.1928494

 Broyden mixing:
  rms(total) = 0.13962E-02    rms(broyden)= 0.13962E-02
  rms(prec ) = 0.35214E-02
  weight for this iteration     100.00

 eigenvalues of (default mixing * dielectric matrix)
  average eigenvalue GAMMA=   1.7396
  9.9589  3.7618  2.6634  1.8580  1.4354  1.4354  0.2599  0.2795  1.0302  1.0302
  0.9007  0.5226  0.7494  0.7261  0.5995  0.6231

 Free energy of the ion-electron system (eV)
  ---------------------------------------------------
  alpha Z        PSCENC =        11.30429057
  Ewald energy   TEWEN  =      6221.61188061
  -Hartree energ DENC   =     -8162.42156763
  -exchange      EXHF   =         0.00000000
  -V(xc)+E(xc)   XCENC  =      -218.80017082
  PAW double counting   =      1221.54761439     -913.77206262
  entropy T*S    EENTRO =         0.00000000
  eigenvalues    EBANDS =      -385.89804617
  atomic energy  EATOM  =      2182.86754148
  Solvation  Ediel_sol  =         0.00000000
  ---------------------------------------------------
  free energy    TOTEN  =       -43.56052018 eV

  energy without entropy =      -43.56052018  energy(sigma->0) =      -43.56052018


--------------------------------------------------------------------------------------------------------




--------------------------------------- Iteration      1(  22)  ---------------------------------------


    POTLOK:  cpu time   50.9720: real time   51.0362
    SETDIJ:  cpu time    0.0480: real time    0.0501
     EDDAV:  cpu time   21.7000: real time   21.7325
 BZINTS: Fermi energy: -1.707836; 57.000000 electrons
         Band energy:-385.190041;  BLOECHL correction: -0.031485
       DOS:  cpu time    0.0040: real time    0.0049
    --------------------------------------------
      LOOP:  cpu time   72.7240: real time   72.8236

 eigenvalue-minimisations  :   912
 total energy-change (2. order) : 0.3141965E-04  (-0.4245846E-04)
 number of electron      57.0000000 magnetization       5.5379721
 augmentation part       -2.6379117 magnetization       4.1928494

 Free energy of the ion-electron system (eV)
  ---------------------------------------------------
  alpha Z        PSCENC =        11.30429057
  Ewald energy   TEWEN  =      6221.61188061
  -Hartree energ DENC   =     -8163.13512531
  -exchange      EXHF   =         0.00000000
  -V(xc)+E(xc)   XCENC  =      -218.79418205
  PAW double counting   =      1221.50847669     -913.73333001
  entropy T*S    EENTRO =         0.00000000
  eigenvalues    EBANDS =      -385.19004074
  atomic energy  EATOM  =      2182.86754148
  Solvation  Ediel_sol  =         0.00000000
  ---------------------------------------------------
  free energy    TOTEN  =       -43.56048876 eV

  energy without entropy =      -43.56048876  energy(sigma->0) =      -43.56048876


--------------------------------------------------------------------------------------------------------




 average (electrostatic) potential at core
  the test charge radii are     1.1394  0.9892  0.9587  1.1897
  (the norm of the test charge is              1.0000)
       1 -50.5951       2 -50.5938       3 -92.5024       4 -91.6591       5 -96.6052
       6 -96.6051       7 -96.6051       8 -96.4514       9 -96.4514      10 -96.4514



 E-fermi :  -1.7078     XC(G=0):  -3.6129     alpha+bet : -3.0865


 spin component 1

 k-point     1 :       0.0000    0.0000    0.0000
  band No.  band energies     occupation 
      1     -14.9227      1.00000
      2     -13.8192      1.00000
      3     -12.7762      1.00000
      4     -12.7762      1.00000
      5     -12.6692      1.00000
      6     -12.6692      1.00000
      7     -11.7741      1.00000
[...]
     34       0.1723      0.00000
     35       0.2815      0.00000
     36       0.5069      0.00000
     37       0.7072      0.00000
     38       0.9257      0.00000
     39       0.9708      0.00000
     40       1.6311      0.00000
     41       1.6964      0.00000
     42       2.1047      0.00000
     43       2.4456      0.00000
     44       2.6549      0.00000
     45       2.9001      0.00000
     46       3.2167      0.00000
     47       3.4099      0.00000
     48       3.4197      0.00000

 k-point     5 :      -0.4000    0.2000    0.0000
  band No.  band energies     occupation 
      1     -14.6574      1.00000
      2     -13.6481      1.00000
      3     -13.4223      1.00000
      4     -13.3096      1.00000
      5     -12.9903      1.00000
      6     -12.8522      1.00000
      7     -11.2195      1.00000
      8      -8.7562      1.00000
      9      -6.7577      1.00000
     10      -6.3050      1.00000
     11      -6.2222      1.00000
     12      -5.7108      1.00000
     13      -5.5635      1.00000
     14      -5.1044      1.00000
     15      -4.8357      1.00000
     16      -4.6735      1.00000
     17      -4.5369      1.00000
     18      -4.1464      1.00000
     19      -4.0432      1.00000
     20      -3.9620      1.00000
     21      -3.6412      1.00000
     22      -3.4767      1.00000
     23      -3.2104      1.00000
     24      -3.0714      1.00000
     25      -3.0334      1.00000
     26      -2.4453      1.00000
     27      -1.1087      0.00000
     28      -0.9684      0.00000
     29      -0.8728      0.00000
     30      -0.3566      0.00000
     31      -0.3257      0.00000
     32      -0.2939      0.00000
     33       0.0334      0.00000
     34       0.0497      0.00000
     35       0.2842      0.00000
     36       0.5510      0.00000
     37       0.5759      0.00000
     38       0.9674      0.00000
     39       0.9982      0.00000
     40       1.4463      0.00000
     41       1.7794      0.00000
     42       1.8804      0.00000
     43       2.8899      0.00000
     44       3.0027      0.00000
     45       3.0235      0.00000
     46       3.1063      0.00000
     47       3.1380      0.00000
     48       3.4896      0.00000


--------------------------------------------------------------------------------------------------------


 soft charge-density along one line, spin component           1
         0         1         2         3         4         5         6         7         8         9
 total charge-density along one line

 soft charge-density along one line, spin component           2
         0         1         2         3         4         5         6         7         8         9
 total charge-density along one line

 pseudopotential strength for first ion, spin component:           1
 -8.385   0.082  -0.000   0.012  -0.000   0.572  -0.022   0.000
  0.082  -8.301   0.000  -0.000   0.012  -0.022   0.549  -0.000
 -0.000   0.000  -8.465   0.000   0.000   0.000  -0.000   0.594
  0.012  -0.000   0.000  -8.301  -0.082  -0.003   0.000  -0.000
 -0.000   0.012   0.000  -0.082  -8.385   0.000  -0.003  -0.000
  0.572  -0.022   0.000  -0.003   0.000   0.393   0.006  -0.000
 -0.022   0.549  -0.000   0.000  -0.003   0.006   0.399   0.000
  0.000  -0.000   0.594  -0.000  -0.000  -0.000   0.000   0.388
 -0.003   0.000  -0.000   0.549   0.022   0.001  -0.000   0.000
  0.000  -0.003  -0.000   0.022   0.572  -0.000   0.001   0.000
 -0.000  -0.000  -0.001  -0.000   0.000  -0.000   0.000   0.000
  0.000   0.000   0.000   0.000  -0.000  -0.000  -0.000  -0.000
 -0.000   0.004   0.000   0.000   0.001   0.000  -0.001  -0.000
  0.000  -0.000   0.005  -0.000  -0.000  -0.000   0.000  -0.001
  0.001   0.000   0.000   0.004   0.000  -0.000  -0.000  -0.000
  0.000  -0.002  -0.000  -0.000  -0.001  -0.000   0.001   0.000
 -0.000   0.000  -0.003   0.000   0.000   0.000  -0.000   0.001
 -0.001  -0.000  -0.000  -0.002  -0.000   0.000   0.000   0.000
 pseudopotential strength for first ion, spin component:           2
 -6.783  -0.154  -0.000  -0.021  -0.000   0.120   0.040   0.000
 -0.154  -6.962   0.000  -0.000  -0.021   0.040   0.167  -0.000
 -0.000   0.000  -6.667   0.000   0.000   0.000  -0.000   0.090
 -0.021  -0.000   0.000  -6.962   0.154   0.005   0.000  -0.000
 -0.000  -0.021   0.000   0.154  -6.783   0.000   0.005  -0.000
  0.120   0.040   0.000   0.005   0.000   0.517  -0.010  -0.000
  0.040   0.167  -0.000   0.000   0.005  -0.010   0.506   0.000
  0.000  -0.000   0.090  -0.000  -0.000  -0.000   0.000   0.524
  0.005   0.000  -0.000   0.167  -0.040  -0.001  -0.000   0.000
  0.000   0.005  -0.000  -0.040   0.120  -0.000  -0.001   0.000
 -0.000  -0.000   0.007  -0.000   0.000  -0.000   0.000  -0.001
  0.000   0.000  -0.001   0.000  -0.000  -0.000  -0.000   0.000
  0.001   0.003   0.000  -0.000   0.001  -0.000  -0.000  -0.000
 -0.000  -0.000   0.003  -0.000   0.000   0.000   0.000  -0.001
  0.001  -0.000   0.000   0.003  -0.001  -0.000   0.000  -0.000
 -0.000  -0.002  -0.000   0.000  -0.001   0.000   0.000   0.000
  0.000   0.000  -0.002   0.000  -0.000  -0.000  -0.000   0.000
 -0.001   0.000  -0.000  -0.002   0.000   0.000  -0.000   0.000
 total augmentation occupancy for first ion, spin component:           1
  0.989  -0.043   0.000   0.006  -0.000   0.052   0.188  -0.000   0.025   0.000  -0.000  -0.000  -0.003   0.000   0.010   0.000
 -0.043   0.962  -0.000  -0.000   0.006   0.187   0.254   0.000   0.000   0.025   0.000   0.000   0.008   0.000  -0.003   0.001
  0.000  -0.000   1.024  -0.000  -0.000  -0.000   0.000  -0.087   0.000   0.000  -0.002  -0.010  -0.000   0.008   0.000  -0.000
  0.006  -0.000  -0.000   0.962   0.043   0.025  -0.000   0.000   0.254  -0.187  -0.000  -0.000   0.003  -0.000   0.008  -0.000
 -0.000   0.006  -0.000   0.043   0.989  -0.000   0.025   0.000  -0.188   0.052   0.000   0.000   0.010  -0.000   0.003   0.000
  0.052   0.187  -0.000   0.025  -0.000   0.137   0.068   0.000   0.007  -0.000   0.000  -0.000  -0.004   0.000   0.014   0.000
  0.188   0.254   0.000  -0.000   0.025   0.068   0.205   0.000  -0.000   0.007   0.000   0.000   0.010  -0.000  -0.004   0.000
 -0.000   0.000  -0.087   0.000   0.000   0.000   0.000   0.120   0.000  -0.000   0.038  -0.007  -0.000   0.010   0.000   0.000
  0.025   0.000   0.000   0.254  -0.188   0.007  -0.000   0.000   0.205  -0.068   0.000  -0.000   0.004   0.000   0.010  -0.000
  0.000   0.025   0.000  -0.187   0.052  -0.000   0.007  -0.000  -0.068   0.137  -0.000   0.000   0.014  -0.000   0.004  -0.001
 -0.000   0.000  -0.002  -0.000   0.000   0.000  -0.000   0.038  -0.000  -0.000   1.058  -0.151   0.000   0.013  -0.000   0.000
 -0.000   0.000  -0.010   0.000   0.000  -0.000   0.000  -0.007   0.000   0.000  -0.151   0.054   0.000  -0.005  -0.000   0.000
 -0.003   0.008  -0.000   0.003   0.010  -0.004   0.010  -0.000   0.004   0.014   0.000   0.000   0.209   0.000  -0.000  -0.001
  0.000   0.000   0.008  -0.000  -0.000   0.000  -0.000   0.010   0.000  -0.000   0.013  -0.005   0.000   0.221  -0.000   0.000
  0.010  -0.003   0.000   0.008   0.003   0.014  -0.004   0.000   0.010   0.004  -0.000   0.000  -0.000  -0.000   0.209  -0.000
  0.000   0.001  -0.000  -0.000   0.000   0.000   0.000   0.000  -0.000  -0.001   0.000   0.000  -0.001   0.000  -0.000   0.000
  0.000   0.000   0.001  -0.000  -0.000  -0.000  -0.000  -0.000   0.000   0.000  -0.000   0.000   0.000  -0.002  -0.000   0.000
  0.000   0.000   0.000   0.001  -0.000  -0.001   0.000  -0.000   0.000  -0.000  -0.000  -0.000   0.000  -0.000  -0.001  -0.000
 total augmentation occupancy for first ion, spin component:           2
  0.710  -0.263   0.000  -0.034  -0.000  -0.136   0.042  -0.000   0.005  -0.001  -0.000  -0.000   0.003  -0.000   0.001  -0.000
 -0.263   0.415  -0.000  -0.000  -0.034   0.042  -0.090   0.000  -0.001   0.004   0.000  -0.000  -0.003   0.000   0.008   0.000
  0.000  -0.000   0.912  -0.000  -0.000  -0.000   0.000  -0.184   0.000   0.000  -0.025  -0.004   0.000  -0.001   0.000  -0.000
 -0.034  -0.000  -0.000   0.415   0.263   0.004   0.001   0.000  -0.090  -0.042   0.000  -0.000  -0.008  -0.000  -0.003   0.000
 -0.000  -0.034  -0.000   0.263   0.710   0.001   0.005   0.000  -0.042  -0.136   0.000   0.000   0.001   0.000  -0.003   0.001
 -0.136   0.042  -0.000   0.004   0.001  -0.007  -0.040   0.000  -0.006  -0.000   0.000   0.000  -0.001  -0.000  -0.004  -0.000
  0.042  -0.090   0.000   0.001   0.005  -0.040  -0.050  -0.000   0.000  -0.006   0.000  -0.000   0.001   0.000   0.001   0.000
 -0.000   0.000  -0.184   0.000   0.000   0.000  -0.000   0.033  -0.000  -0.000   0.008   0.003   0.000  -0.000  -0.000  -0.000
  0.005  -0.001   0.000  -0.090  -0.042  -0.006   0.000  -0.000  -0.050   0.040   0.000   0.000  -0.001   0.000   0.001  -0.000
 -0.001   0.004   0.000  -0.042  -0.136  -0.000  -0.006  -0.000   0.040  -0.007  -0.000  -0.000  -0.004   0.000   0.001  -0.000
 -0.000   0.000  -0.025   0.000   0.000   0.000  -0.000   0.008   0.000  -0.000   0.173   0.062   0.000   0.000  -0.000   0.000
 -0.000   0.000  -0.004   0.000   0.000   0.000  -0.000   0.003  -0.000  -0.000   0.062  -0.017   0.000   0.001  -0.000   0.000
  0.003  -0.003   0.000  -0.008   0.001  -0.001   0.001   0.000  -0.001  -0.004   0.000   0.000   0.029   0.000  -0.000   0.003
 -0.000   0.000  -0.001  -0.000   0.000  -0.000   0.000  -0.000   0.000   0.000   0.000   0.001   0.000   0.022  -0.000   0.000
  0.001   0.008   0.000  -0.003  -0.003  -0.004   0.001  -0.000   0.001   0.001   0.000  -0.000  -0.000  -0.000   0.029   0.000
 -0.000   0.000  -0.000   0.000   0.001  -0.000   0.000  -0.000  -0.000  -0.000   0.000   0.000   0.003   0.000   0.000   0.000
  0.000   0.000   0.001  -0.000  -0.000  -0.000   0.000  -0.000   0.000   0.000   0.000  -0.000   0.000   0.002  -0.000   0.000
  0.001  -0.000   0.000   0.000   0.000  -0.000   0.000  -0.000   0.000   0.000  -0.000  -0.000  -0.000  -0.000   0.003  -0.000


------------------------ aborting loop because EDIFF is reached ----------------------------------------





 total charge     

# of ion       s       p       d       tot
------------------------------------------
    1        0.340   0.427   4.275   5.042
    2        0.340   0.427   4.278   5.045
    3        0.775   0.820   0.000   1.595
    4        1.102   1.342   0.000   2.444
    5        1.405   1.941   0.040   3.386
    6        1.394   1.926   0.041   3.360
    7        1.403   1.938   0.040   3.381
    8        1.386   2.003   0.035   3.425
    9        1.379   1.993   0.036   3.409
   10        1.384   1.998   0.036   3.418
--------------------------------------------------
tot         10.908  14.816   8.780  34.504



 magnetization (x)

# of ion       s       p       d       tot
------------------------------------------
    1        0.041   0.045   2.896   2.983
    2        0.041   0.045   2.898   2.984
    3        0.004   0.022   0.000   0.026
    4       -0.020   0.009   0.000  -0.012
    5       -0.003  -0.118   0.004  -0.117
    6       -0.003  -0.112   0.004  -0.111
    7       -0.004  -0.123   0.004  -0.123
    8       -0.001  -0.095   0.005  -0.091
    9       -0.002  -0.077   0.005  -0.074
   10       -0.002  -0.089   0.005  -0.087
--------------------------------------------------
tot          0.051  -0.494   5.821   5.378

    CHARGE:  cpu time    1.9320: real time    1.9397
    FORLOC:  cpu time    0.0640: real time    0.0643
    FORNL :  cpu time    6.4440: real time    6.4567
    STRESS:  cpu time   19.3000: real time   19.4208
    FORCOR:  cpu time   50.0560: real time   51.1320
    FORHAR:  cpu time    0.3320: real time    0.3317
    MIXING:  cpu time    0.0400: real time    0.0423
    OFIELD:  cpu time    0.0000: real time    0.0000

  FORCE on cell =-STRESS in cart. coord.  units (eV):
  Direction    XX          YY          ZZ          XY          YZ          ZX
  --------------------------------------------------------------------------------------
  Alpha Z    11.75413    11.75413    11.75413
  Ewald    7756.61166  7756.60938 -9258.05128    -0.00103    -0.00042    -0.00076
  Hartree  8065.00772  8065.00810 -7927.86752     0.00001     0.00005     0.00009
  E(xc)    -226.75488  -226.75488  -226.74806     0.00004     0.00002     0.00002
  Local  -16706.12955-16706.12854 16266.85163     0.00076     0.00026     0.00049
  n-local   738.24930   737.97361   755.11600    -0.17393     0.45295     0.55358
  augment  -115.83938  -115.83940  -123.30060     0.00004    -0.00003     0.00004
  Kinetic   481.16858   473.52095   502.32605    -5.05590     0.08018     0.04031
  Fock        0.00000     0.00000     0.00000     0.00000     0.00000     0.00000
  -------------------------------------------------------------------------------------
  Total       0.10546     0.10546     0.08034     0.00000    -0.00000     0.00000
  in kB       0.18135     0.18135     0.13814     0.00000    -0.00000     0.00000
  external pressure =        0.17 kB  Pullay stress =        0.00 kB


 VOLUME and BASIS-vectors are now :
 -----------------------------------------------------------------------------
  energy-cutoff  :      520.00
  volume of cell :      931.76
      direct lattice vectors                 reciprocal lattice vectors
     6.834933195 -0.000000237 -0.000000000     0.146307206 -0.084470505  0.000000000
     3.417466320  5.919225308 -0.000000000     0.000000006  0.168941023 -0.000000000
    -0.000000000  0.000000000 23.030505488     0.000000000  0.000000000  0.043420671

  length of vectors
     6.834933195  6.834932647 23.030505488     0.168941010  0.168941023  0.043420671


 FORCES acting on ions
    electron-ion (+dipol)            ewald-force                    non-local-force                 convergence-correction
 -----------------------------------------------------------------------------------------------
   -.511E-04 -.278E-04 0.241E+02   0.319E-03 0.189E-03 -.242E+02   0.690E-17 0.500E-19 0.139E+00   0.257E-06 0.177E-06 -.103E-01
   0.473E-04 0.280E-04 0.247E+02   -.348E-03 -.205E-03 -.249E+02   -.359E-19 0.511E-19 0.142E+00   0.629E-07 0.692E-07 -.108E-01
   -.218E-04 -.168E-04 0.138E+03   -.114E-03 -.623E-04 -.137E+03   0.726E-17 -.460E-18 -.128E+01   -.575E-07 -.271E-07 -.439E-02
   0.433E-04 0.320E-04 -.241E+03   0.197E-03 0.110E-03 0.243E+03   0.353E-16 -.216E-16 -.222E+01   -.135E-06 -.789E-07 -.724E-02
   0.904E+00 -.464E-01 -.342E+03   -.430E+01 0.204E-01 0.346E+03   0.339E+01 0.345E-02 -.418E+01   -.166E-01 0.226E-01 -.198E-01
   -.493E+00 -.761E+00 -.342E+03   0.217E+01 0.371E+01 0.346E+03   -.169E+01 -.294E+01 -.418E+01   0.279E-01 0.302E-02 -.198E-01
   -.414E+00 0.806E+00 -.342E+03   0.213E+01 -.373E+01 0.346E+03   -.170E+01 0.293E+01 -.418E+01   -.113E-01 -.257E-01 -.198E-01
   0.423E+01 0.349E-01 0.360E+03   -.123E+01 -.507E-01 -.365E+03   -.302E+01 -.101E-01 0.493E+01   0.192E-01 0.208E-01 0.413E-02
   -.208E+01 -.368E+01 0.360E+03   0.569E+00 0.109E+01 -.365E+03   0.150E+01 0.262E+01 0.493E+01   0.845E-02 -.271E-01 0.413E-02
   -.214E+01 0.365E+01 0.360E+03   0.657E+00 -.104E+01 -.365E+03   0.152E+01 -.261E+01 0.493E+01   -.276E-01 0.621E-02 0.413E-02
 -----------------------------------------------------------------------------------------------
   0.256E-04 0.166E-04 0.106E+01   -.111E-14 -.147E-13 0.171E-12   0.666E-15 0.000E+00 -.985E+00   0.239E-06 0.204E-06 -.796E-01


 POSITION                                       TOTAL-FORCE (eV/Angst)
 -----------------------------------------------------------------------------------
      3.41746      1.97307     11.44002        -0.000000     -0.000000     -0.037080
      6.83494      3.94615     11.43789        -0.000000     -0.000000     -0.035618
     -0.00000      0.00000     10.60585        -0.000000     -0.000000     -0.012395
     -0.00000      0.00000     12.87978        -0.000000     -0.000000     -0.020414
      4.21300     -0.00084     13.14740        -0.021228      0.000591      0.025749
      1.31025      2.27109     13.14740         0.011125      0.018088      0.025749
      4.72916      3.64898     13.14740         0.010102     -0.018679      0.025749
      2.41054      0.00123      9.78226        -0.000973     -0.005680      0.009420
      2.21325      3.83102      9.78226        -0.004432      0.003683      0.009420
      5.62859      2.08698      9.78226         0.005406      0.001997      0.009420
 -----------------------------------------------------------------------------------
    total drift:                                0.000026      0.000017     -0.008187


--------------------------------------------------------------------------------------------------------



  FREE ENERGIE OF THE ION-ELECTRON SYSTEM (eV)
  ---------------------------------------------------
  free  energy   TOTEN  =       -43.84451802 eV

  energy  without entropy=      -43.84451802  energy(sigma->0) =      -43.84451802

 d Force =-0.3823653E-04[-0.521E-04,-0.244E-04]  d Energy = 0.6359502E-04-0.102E-03
 d Force = 0.5432206E+00[ 0.543E+00, 0.543E+00]  d Ewald  = 0.1317932E+01-0.775E+00


--------------------------------------------------------------------------------------------------------


    POTLOK:  cpu time   50.9480: real time   51.1497


--------------------------------------------------------------------------------------------------------




--------------------------------------------------------------------------------------------------------


  
 reached required accuracy - stopping structural energy minimisation
     LOOP+:  cpu time  282.8200: real time  286.1626
    4ORBIT:  cpu time    0.0000: real time    0.0000



 total charge     

# of ion       s       p       d       tot
------------------------------------------
    1        0.340   0.427   4.275   5.042
    2        0.340   0.427   4.278   5.045
    3        0.775   0.820   0.000   1.595
    4        1.102   1.342   0.000   2.444
    5        1.405   1.941   0.040   3.386
    6        1.394   1.926   0.041   3.360
    7        1.403   1.938   0.040   3.381
    8        1.386   2.003   0.035   3.425
    9        1.379   1.993   0.036   3.409
   10        1.384   1.998   0.036   3.418
--------------------------------------------------
tot         10.908  14.816   8.780  34.504



 magnetization (x)

# of ion       s       p       d       tot
------------------------------------------
    1        0.041   0.045   2.896   2.983
    2        0.041   0.045   2.898   2.984
    3        0.004   0.022   0.000   0.026
    4       -0.020   0.009   0.000  -0.012
    5       -0.003  -0.118   0.004  -0.117
    6       -0.003  -0.112   0.004  -0.111
    7       -0.004  -0.123   0.004  -0.123
    8       -0.001  -0.095   0.005  -0.091
    9       -0.002  -0.077   0.005  -0.074
   10       -0.002  -0.089   0.005  -0.087
--------------------------------------------------
tot          0.051  -0.494   5.821   5.378

 BZINTS: Fermi energy: -1.666146; 57.000000 electrons
         Band energy:-382.202297;  BLOECHL correction: -0.025353

 total amount of memory used by VASP MPI-rank0   130447. kBytes
=======================================================================

   base      :      30000. kBytes
   nonlr-proj:       7947. kBytes
   fftplans  :      11247. kBytes
   grid      :      68332. kBytes
   one-center:        311. kBytes
   wavefun   :      12610. kBytes

  
  
 General timing and accounting informations for this job:
 ========================================================
  
                  Total CPU time used (sec):    15508.668
                            User time (sec):    15116.156
                          System time (sec):      392.512
                         Elapsed time (sec):    15607.446
  
                   Maximum memory used (kb):      385092.
                   Average memory used (kb):           0.
  
                          Minor page faults:     15588574
                          Major page faults:            7
                 Voluntary context switches:         1131
