PROCAR lm decomposed
# of k-points:    5         # of bands:   48         # of ions:   10

 k-point     1 :    0.00000000 0.00000000 0.00000000     weight = 0.04000000

band     1 # energy  -15.06674076 # occ.  1.00000000

ion      s     py     pz     px    dxy    dyz    dz2    dxz  x2-y2    tot
    1  0.011  0.000  0.000  0.000  0.000  0.000  0.000  0.000  0.000  0.011
    2  0.011  0.000  0.000  0.000  0.000  0.000  0.000  0.000  0.000  0.011
    3  0.043  0.000  0.002  0.000  0.000  0.000  0.000  0.000  0.000  0.045
    4  0.153  0.000  0.002  0.000  0.000  0.000  0.000  0.000  0.000  0.155
    5  0.084  0.000  0.001  0.001  0.000  0.000  0.000  0.000  0.000  0.086
    6  0.084  0.001  0.001  0.000  0.000  0.000  0.000  0.000  0.000  0.086
    7  0.084  0.001  0.001  0.000  0.000  0.000  0.000  0.000  0.000  0.086
    8  0.032  0.000  0.001  0.000  0.000  0.000  0.000  0.000  0.000  0.033
    9  0.032  0.000  0.001  0.000  0.000  0.000  0.000  0.000  0.000  0.033
   10  0.032  0.000  0.001  0.000  0.000  0.000  0.000  0.000  0.000  0.033
tot    0.565  0.003  0.008  0.003  0.000  0.000  0.000  0.000  0.000  0.579

band     2 # energy  -13.77241502 # occ.  1.00000000

ion      s     py     pz     px    dxy    dyz    dz2    dxz  x2-y2    tot
    1  0.002  0.000  0.006  0.000  0.000  0.000  0.000  0.000  0.000  0.007
    2  0.002  0.000  0.006  0.000  0.000  0.000  0.000  0.000  0.000  0.007
    3  0.038  0.000  0.004  0.000  0.000  0.000  0.000  0.000  0.000  0.042
    4  0.038  0.000  0.001  0.000  0.000  0.000  0.000  0.000  0.000  0.039
    5  0.039  0.000  0.000  0.000  0.000  0.000  0.000  0.000  0.000  0.040
    6  0.039  0.000  0.000  0.000  0.000  0.000  0.000  0.000  0.000  0.040
    7  0.039  0.000  0.000  0.000  0.000  0.000  0.000  0.000  0.000  0.040
    8  0.140  0.000  0.000  0.001  0.000  0.000  0.000  0.000  0.000  0.142
    9  0.140  0.001  0.000  0.000  0.000  0.000  0.000  0.000  0.000  0.142
   10  0.140  0.001  0.000  0.000  0.000  0.000  0.000  0.000  0.000  0.142
tot    0.617  0.002  0.017  0.002  0.000  0.000  0.001  0.000  0.000  0.639

band     3 # energy  -12.69942525 # occ.  1.00000000

ion      s     py     pz     px    dxy    dyz    dz2    dxz  x2-y2    tot
    1  0.000  0.004  0.000  0.001  0.000  0.002  0.000  0.002  0.002  0.012
    2  0.000  0.006  0.000  0.000  0.001  0.004  0.000  0.000  0.001  0.012
    3  0.000  0.000  0.000  0.000  0.000  0.000  0.000  0.000  0.000  0.000
    4  0.000  0.001  0.000  0.013  0.000  0.000  0.000  0.000  0.000  0.013
    5  0.418  0.000  0.001  0.001  0.000  0.000  0.000  0.000  0.000  0.420
    6  0.200  0.000  0.001  0.000  0.000  0.000  0.000  0.000  0.000  0.201
    7  0.040  0.000  0.000  0.000  0.000  0.000  0.000  0.000  0.000  0.040
    8  0.010  0.000  0.000  0.000  0.000  0.000  0.000  0.000  0.000  0.010
    9  0.005  0.000  0.000  0.000  0.000  0.000  0.000  0.000  0.000  0.005
   10  0.001  0.000  0.000  0.000  0.000  0.000  0.000  0.000  0.000  0.001
tot    0.673  0.011  0.002  0.016  0.002  0.006  0.000  0.002  0.003  0.715

band     4 # energy  -12.69939457 # occ.  1.00000000

ion      s     py     pz     px    dxy    dyz    dz2    dxz  x2-y2    tot
    1  0.000  0.001  0.000  0.004  0.002  0.002  0.000  0.002  0.000  0.012
    2  0.000  0.000  0.000  0.006  0.001  0.000  0.000  0.004  0.001  0.012
    3  0.000  0.000  0.000  0.000  0.000  0.000  0.000  0.000  0.000  0.000
    4  0.000  0.013  0.000  0.001  0.000  0.000  0.000  0.000  0.000  0.013
    5  0.021  0.000  0.000  0.000  0.000  0.000  0.000  0.000  0.000  0.021
    6  0.238  0.001  0.001  0.000  0.000  0.000  0.000  0.000  0.000  0.240
    7  0.398  0.001  0.001  0.000  0.000  0.000  0.000  0.000  0.000  0.401
    8  0.001  0.000  0.000  0.000  0.000  0.000  0.000  0.000  0.000  0.001
    9  0.006  0.000  0.000  0.000  0.000  0.000  0.000  0.000  0.000  0.006
   10  0.010  0.000  0.000  0.000  0.000  0.000  0.000  0.000  0.000  0.010
tot    0.673  0.016  0.002  0.011  0.003  0.002  0.000  0.006  0.002  0.715

band     5 # energy  -12.60095094 # occ.  1.00000000

ion      s     py     pz     px    dxy    dyz    dz2    dxz  x2-y2    tot
    1  0.000  0.003  0.000  0.001  0.002  0.005  0.000  0.000  0.000  0.011
    2  0.000  0.002  0.000  0.002  0.001  0.003  0.000  0.002  0.001  0.011
    3  0.000  0.001  0.000  0.013  0.000  0.000  0.000  0.000  0.000  0.014
    4  0.000  0.000  0.000  0.001  0.000  0.000  0.000  0.000  0.000  0.001
    5  0.009  0.000  0.000  0.000  0.000  0.000  0.000  0.000  0.000  0.009
    6  0.004  0.000  0.000  0.000  0.000  0.000  0.000  0.000  0.000  0.005
    7  0.001  0.000  0.000  0.000  0.000  0.000  0.000  0.000  0.000  0.001
    8  0.412  0.000  0.002  0.001  0.000  0.000  0.000  0.000  0.000  0.415
    9  0.211  0.000  0.001  0.000  0.000  0.000  0.000  0.000  0.000  0.213
   10  0.033  0.000  0.000  0.000  0.000  0.000  0.000  0.000  0.000  0.033
tot    0.670  0.006  0.003  0.019  0.004  0.008  0.000  0.002  0.001  0.713

band     6 # energy  -12.60092240 # occ.  1.00000000

ion      s     py     pz     px    dxy    dyz    dz2    dxz  x2-y2    tot
    1  0.000  0.001  0.000  0.003  0.000  0.000  0.000  0.005  0.002  0.011
    2  0.000  0.002  0.000  0.002  0.001  0.002  0.000  0.003  0.001  0.011
    3  0.000  0.013  0.000  0.001  0.000  0.000  0.000  0.000  0.000  0.014
    4  0.000  0.001  0.000  0.000  0.000  0.000  0.000  0.000  0.000  0.001
    5  0.001  0.000  0.000  0.000  0.000  0.000  0.000  0.000  0.000  0.001
    6  0.005  0.000  0.000  0.000  0.000  0.000  0.000  0.000  0.000  0.005
    7  0.008  0.000  0.000  0.000  0.000  0.000  0.000  0.000  0.000  0.009
    8  0.026  0.000  0.000  0.000  0.000  0.000  0.000  0.000  0.000  0.026
    9  0.226  0.000  0.001  0.000  0.000  0.000  0.000  0.000  0.000  0.228
   10  0.405  0.001  0.002  0.000  0.000  0.000  0.000  0.000  0.000  0.408
tot    0.670  0.019  0.003  0.006  0.001  0.002  0.000  0.008  0.004  0.713

band     7 # energy  -11.94078685 # occ.  1.00000000

ion      s     py     pz     px    dxy    dyz    dz2    dxz  x2-y2    tot
    1  0.014  0.000  0.002  0.000  0.000  0.000  0.000  0.000  0.000  0.016
    2  0.014  0.000  0.002  0.000  0.000  0.000  0.000  0.000  0.000  0.016
    3  0.047  0.000  0.010  0.000  0.000  0.000  0.000  0.000  0.000  0.058
    4  0.239  0.000  0.009  0.000  0.000  0.000  0.000  0.000  0.000  0.248
    5  0.078  0.000  0.000  0.008  0.000  0.000  0.000  0.000  0.001  0.087
    6  0.078  0.006  0.000  0.002  0.000  0.000  0.000  0.000  0.000  0.087
    7  0.078  0.006  0.000  0.002  0.000  0.000  0.000  0.000  0.000  0.087
    8  0.007  0.000  0.000  0.002  0.000  0.000  0.000  0.000  0.000  0.009
    9  0.007  0.001  0.000  0.000  0.000  0.000  0.000  0.000  0.000  0.009
   10  0.007  0.001  0.000  0.000  0.000  0.000  0.000  0.000  0.000  0.009
tot    0.570  0.015  0.022  0.015  0.001  0.000  0.001  0.000  0.001  0.626

band     8 # energy   -8.87335268 # occ.  1.00000000

ion      s     py     pz     px    dxy    dyz    dz2    dxz  x2-y2    tot
    1  0.001  0.000  0.006  0.000  0.000  0.000  0.000  0.000  0.000  0.007
    2  0.001  0.000  0.006  0.000  0.000  0.000  0.000  0.000  0.000  0.007
    3  0.236  0.000  0.001  0.000  0.000  0.000  0.000  0.000  0.000  0.238
    4  0.073  0.000  0.024  0.000  0.000  0.000  0.000  0.000  0.000  0.098
    5  0.005  0.000  0.000  0.005  0.000  0.000  0.000  0.000  0.000  0.010
    6  0.005  0.004  0.000  0.001  0.000  0.000  0.000  0.000  0.000  0.010
    7  0.005  0.004  0.000  0.001  0.000  0.000  0.000  0.000  0.000  0.010
    8  0.026  0.000  0.002  0.030  0.000  0.000  0.000  0.000  0.001  0.060
    9  0.026  0.022  0.002  0.007  0.001  0.000  0.000  0.000  0.000  0.060
   10  0.026  0.022  0.002  0.007  0.001  0.000  0.000  0.000  0.000  0.060
tot    0.405  0.052  0.043  0.052  0.003  0.001  0.001  0.001  0.003  0.560

band     9 # energy   -6.96013412 # occ.  1.00000000

ion      s     py     pz     px    dxy    dyz    dz2    dxz  x2-y2    tot
    1  0.000  0.004  0.000  0.000  0.003  0.023  0.000  0.004  0.000  0.035
    2  0.000  0.000  0.000  0.004  0.000  0.010  0.000  0.017  0.003  0.035
    3  0.000  0.006  0.000  0.010  0.000  0.000  0.000  0.000  0.000  0.016
    4  0.000  0.038  0.000  0.062  0.000  0.000  0.000  0.000  0.000  0.100
    5  0.007  0.010  0.000  0.068  0.000  0.000  0.000  0.000  0.000  0.085
    6  0.009  0.087  0.000  0.010  0.000  0.000  0.000  0.000  0.000  0.107
    7  0.000  0.002  0.000  0.025  0.000  0.000  0.000  0.000  0.001  0.028
    8  0.005  0.002  0.004  0.007  0.000  0.000  0.000  0.000  0.000  0.019
    9  0.007  0.010  0.006  0.001  0.000  0.000  0.000  0.000  0.000  0.024
   10  0.000  0.000  0.000  0.004  0.000  0.000  0.000  0.000  0.000  0.005
tot    0.028  0.158  0.011  0.193  0.004  0.033  0.000  0.022  0.004  0.454

band    10 # energy   -6.96011674 # occ.  1.00000000

ion      s     py     pz     px    dxy    dyz    dz2    dxz  x2-y2    tot
    1  0.000  0.000  0.000  0.004  0.000  0.004  0.000  0.023  0.003  0.035
    2  0.000  0.004  0.000  0.000  0.003  0.017  0.000  0.010  0.000  0.035
    3  0.000  0.010  0.000  0.006  0.000  0.000  0.000  0.000  0.000  0.016
    4  0.000  0.062  0.000  0.038  0.000  0.000  0.000  0.000  0.000  0.100
    5  0.004  0.016  0.000  0.041  0.001  0.000  0.000  0.000  0.000  0.062
    6  0.002  0.001  0.000  0.036  0.000  0.000  0.000  0.000  0.000  0.040
    7  0.011  0.086  0.000  0.021  0.000  0.000  0.000  0.000  0.000  0.119
    8  0.003  0.003  0.003  0.004  0.000  0.000  0.000  0.000  0.000  0.013
    9  0.001  0.000  0.001  0.006  0.000  0.000  0.000  0.000  0.000  0.008
   10  0.008  0.010  0.007  0.002  0.000  0.000  0.000  0.000  0.000  0.026
tot    0.028  0.193  0.011  0.158  0.004  0.022  0.000  0.033  0.004  0.454

band    11 # energy   -6.65298891 # occ.  1.00000000

ion      s     py     pz     px    dxy    dyz    dz2    dxz  x2-y2    tot
    1  0.042  0.000  0.000  0.000  0.000  0.000  0.009  0.000  0.000  0.051
    2  0.036  0.000  0.000  0.000  0.000  0.000  0.011  0.000  0.000  0.046
    3  0.003  0.000  0.052  0.000  0.000  0.000  0.000  0.000  0.000  0.055
    4  0.001  0.000  0.060  0.000  0.000  0.000  0.000  0.000  0.000  0.062
    5  0.003  0.000  0.032  0.003  0.000  0.000  0.000  0.000  0.000  0.039
    6  0.003  0.002  0.032  0.001  0.000  0.000  0.000  0.000  0.000  0.039
    7  0.003  0.003  0.032  0.000  0.000  0.000  0.000  0.000  0.000  0.039
    8  0.002  0.000  0.020  0.017  0.000  0.000  0.000  0.000  0.001  0.040
    9  0.002  0.014  0.020  0.004  0.000  0.000  0.000  0.000  0.000  0.040
   10  0.002  0.012  0.020  0.005  0.000  0.000  0.000  0.000  0.000  0.040
tot    0.097  0.031  0.269  0.031  0.001  0.000  0.022  0.000  0.001  0.451

band    12 # energy   -6.64017577 # occ.  1.00000000

ion      s     py     pz     px    dxy    dyz    dz2    dxz  x2-y2    tot
    1  0.077  0.000  0.002  0.000  0.000  0.000  0.020  0.000  0.000  0.099
    2  0.084  0.000  0.002  0.000  0.000  0.000  0.018  0.000  0.000  0.104
    3  0.000  0.000  0.000  0.000  0.000  0.000  0.000  0.000  0.000  0.000
    4  0.000  0.000  0.000  0.000  0.000  0.000  0.000  0.000  0.000  0.000
    5  0.000  0.076  0.000  0.000  0.001  0.001  0.000  0.000  0.000  0.077
    6  0.000  0.019  0.000  0.057  0.000  0.000  0.000  0.000  0.000  0.077
    7  0.000  0.019  0.000  0.057  0.000  0.000  0.000  0.000  0.000  0.077
    8  0.000  0.026  0.000  0.000  0.000  0.000  0.000  0.000  0.000  0.027
    9  0.000  0.006  0.000  0.020  0.000  0.000  0.000  0.000  0.000  0.027
   10  0.000  0.007  0.000  0.019  0.000  0.000  0.000  0.000  0.000  0.027
tot    0.161  0.153  0.005  0.153  0.001  0.001  0.038  0.001  0.001  0.515

band    13 # energy   -6.14512324 # occ.  1.00000000

ion      s     py     pz     px    dxy    dyz    dz2    dxz  x2-y2    tot
    1  0.000  0.010  0.000  0.006  0.000  0.001  0.000  0.018  0.010  0.045
    2  0.000  0.015  0.000  0.001  0.005  0.016  0.000  0.004  0.005  0.045
    3  0.000  0.009  0.000  0.042  0.000  0.000  0.000  0.000  0.000  0.051
    4  0.000  0.002  0.000  0.010  0.000  0.000  0.000  0.000  0.000  0.012
    5  0.001  0.001  0.011  0.018  0.000  0.000  0.001  0.000  0.000  0.030
    6  0.000  0.015  0.009  0.001  0.000  0.000  0.000  0.000  0.000  0.025
    7  0.000  0.002  0.000  0.003  0.000  0.000  0.000  0.000  0.000  0.005
    8  0.001  0.007  0.000  0.096  0.000  0.000  0.000  0.001  0.000  0.106
    9  0.001  0.090  0.000  0.001  0.000  0.001  0.000  0.000  0.000  0.093
   10  0.000  0.018  0.000  0.027  0.000  0.000  0.000  0.000  0.001  0.046
tot    0.003  0.169  0.020  0.203  0.005  0.018  0.001  0.022  0.016  0.458

band    14 # energy   -6.14510501 # occ.  1.00000000

ion      s     py     pz     px    dxy    dyz    dz2    dxz  x2-y2    tot
    1  0.000  0.006  0.000  0.010  0.010  0.018  0.000  0.001  0.000  0.045
    2  0.000  0.001  0.000  0.015  0.005  0.004  0.000  0.016  0.005  0.045
    3  0.000  0.042  0.000  0.009  0.000  0.000  0.000  0.000  0.000  0.051
    4  0.000  0.010  0.000  0.002  0.000  0.000  0.000  0.000  0.000  0.012
    5  0.000  0.004  0.002  0.004  0.000  0.000  0.000  0.000  0.000  0.010
    6  0.000  0.002  0.004  0.008  0.000  0.000  0.000  0.000  0.000  0.015
    7  0.001  0.015  0.013  0.006  0.000  0.000  0.001  0.000  0.000  0.035
    8  0.000  0.036  0.000  0.019  0.001  0.000  0.000  0.000  0.000  0.057
    9  0.001  0.007  0.000  0.061  0.000  0.000  0.000  0.000  0.000  0.070
   10  0.002  0.079  0.000  0.035  0.000  0.001  0.000  0.000  0.000  0.117
tot    0.003  0.203  0.020  0.169  0.016  0.022  0.001  0.018  0.005  0.458

band    15 # energy   -5.16384497 # occ.  1.00000000

ion      s     py     pz     px    dxy    dyz    dz2    dxz  x2-y2    tot
    1  0.005  0.000  0.042  0.000  0.000  0.000  0.000  0.000  0.000  0.048
    2  0.006  0.000  0.043  0.000  0.000  0.000  0.000  0.000  0.000  0.048
    3  0.000  0.000  0.000  0.000  0.000  0.000  0.000  0.000  0.000  0.000
    4  0.000  0.000  0.000  0.000  0.000  0.000  0.000  0.000  0.000  0.000
    5  0.000  0.039  0.000  0.000  0.000  0.000  0.000  0.000  0.000  0.040
    6  0.000  0.010  0.000  0.029  0.000  0.000  0.000  0.000  0.000  0.040
    7  0.000  0.010  0.000  0.030  0.000  0.000  0.000  0.000  0.000  0.040
    8  0.000  0.087  0.000  0.000  0.001  0.000  0.000  0.000  0.000  0.087
    9  0.000  0.022  0.000  0.065  0.000  0.000  0.000  0.000  0.001  0.087
   10  0.000  0.022  0.000  0.065  0.000  0.000  0.000  0.000  0.001  0.087
tot    0.011  0.189  0.085  0.189  0.001  0.000  0.001  0.000  0.001  0.478

band    16 # energy   -4.63927471 # occ.  1.00000000

ion      s     py     pz     px    dxy    dyz    dz2    dxz  x2-y2    tot
    1  0.006  0.000  0.000  0.000  0.000  0.000  0.100  0.000  0.000  0.106
    2  0.006  0.000  0.000  0.000  0.000  0.000  0.100  0.000  0.000  0.106
    3  0.002  0.000  0.055  0.000  0.000  0.000  0.000  0.000  0.000  0.057
    4  0.000  0.000  0.120  0.000  0.000  0.000  0.000  0.000  0.000  0.121
    5  0.001  0.000  0.008  0.008  0.000  0.000  0.000  0.001  0.000  0.019
    6  0.001  0.006  0.008  0.002  0.000  0.000  0.000  0.000  0.000  0.019
    7  0.001  0.006  0.008  0.002  0.000  0.000  0.000  0.000  0.000  0.019
    8  0.001  0.000  0.024  0.010  0.000  0.000  0.000  0.000  0.000  0.035
    9  0.001  0.007  0.024  0.002  0.000  0.000  0.000  0.000  0.000  0.035
   10  0.001  0.007  0.024  0.002  0.000  0.000  0.000  0.000  0.000  0.035
tot    0.019  0.027  0.274  0.027  0.001  0.001  0.201  0.001  0.001  0.552

band    17 # energy   -4.42522795 # occ.  1.00000000

ion      s     py     pz     px    dxy    dyz    dz2    dxz  x2-y2    tot
    1  0.000  0.001  0.000  0.000  0.000  0.000  0.000  0.105  0.139  0.245
    2  0.000  0.001  0.000  0.000  0.003  0.007  0.000  0.100  0.137  0.249
    3  0.000  0.000  0.000  0.000  0.000  0.000  0.000  0.000  0.000  0.000
    4  0.000  0.000  0.000  0.000  0.000  0.000  0.000  0.000  0.000  0.000
    5  0.002  0.000  0.053  0.002  0.000  0.000  0.000  0.000  0.000  0.059
    6  0.001  0.003  0.018  0.023  0.000  0.000  0.000  0.001  0.000  0.047
    7  0.000  0.006  0.009  0.028  0.000  0.000  0.000  0.001  0.000  0.044
    8  0.001  0.000  0.019  0.003  0.000  0.000  0.000  0.000  0.000  0.025
    9  0.000  0.003  0.007  0.025  0.000  0.000  0.000  0.001  0.000  0.036
   10  0.000  0.005  0.003  0.029  0.000  0.000  0.000  0.001  0.000  0.038
tot    0.005  0.020  0.110  0.110  0.004  0.007  0.001  0.208  0.277  0.742

band    18 # energy   -4.42521804 # occ.  1.00000000

ion      s     py     pz     px    dxy    dyz    dz2    dxz  x2-y2    tot
    1  0.000  0.000  0.000  0.001  0.139  0.105  0.000  0.000  0.000  0.245
    2  0.000  0.000  0.000  0.001  0.137  0.100  0.000  0.007  0.003  0.249
    3  0.000  0.000  0.000  0.000  0.000  0.000  0.000  0.000  0.000  0.000
    4  0.000  0.000  0.000  0.000  0.000  0.000  0.000  0.000  0.000  0.000
    5  0.000  0.039  0.001  0.000  0.000  0.001  0.000  0.000  0.000  0.041
    6  0.002  0.008  0.035  0.007  0.000  0.000  0.000  0.000  0.000  0.053
    7  0.002  0.006  0.045  0.002  0.000  0.000  0.000  0.000  0.000  0.056
    8  0.000  0.040  0.000  0.000  0.000  0.001  0.000  0.000  0.000  0.041
    9  0.001  0.010  0.013  0.006  0.000  0.001  0.000  0.000  0.000  0.030
   10  0.001  0.007  0.016  0.002  0.000  0.001  0.000  0.000  0.000  0.027
tot    0.005  0.110  0.110  0.020  0.277  0.208  0.001  0.007  0.004  0.742

band    19 # energy   -4.13470707 # occ.  1.00000000

ion      s     py     pz     px    dxy    dyz    dz2    dxz  x2-y2    tot
    1  0.000  0.000  0.000  0.000  0.098  0.092  0.000  0.009  0.007  0.206
    2  0.000  0.000  0.000  0.001  0.075  0.076  0.000  0.023  0.028  0.203
    3  0.000  0.000  0.000  0.002  0.000  0.000  0.000  0.000  0.000  0.003
    4  0.000  0.000  0.000  0.000  0.000  0.000  0.000  0.000  0.000  0.000
    5  0.003  0.001  0.048  0.001  0.000  0.000  0.000  0.000  0.000  0.054
    6  0.002  0.003  0.036  0.001  0.000  0.000  0.000  0.000  0.000  0.043
    7  0.000  0.003  0.001  0.006  0.000  0.000  0.000  0.000  0.000  0.010
    8  0.007  0.001  0.083  0.004  0.000  0.000  0.000  0.000  0.000  0.095
    9  0.005  0.004  0.063  0.000  0.000  0.000  0.000  0.000  0.000  0.073
   10  0.000  0.002  0.001  0.003  0.000  0.000  0.000  0.000  0.000  0.006
tot    0.017  0.014  0.234  0.018  0.173  0.168  0.000  0.032  0.035  0.693

band    20 # energy   -4.13469432 # occ.  1.00000000

ion      s     py     pz     px    dxy    dyz    dz2    dxz  x2-y2    tot
    1  0.000  0.000  0.000  0.000  0.007  0.009  0.000  0.092  0.098  0.206
    2  0.000  0.001  0.000  0.000  0.028  0.023  0.000  0.076  0.075  0.203
    3  0.000  0.002  0.000  0.000  0.000  0.000  0.000  0.000  0.000  0.003
    4  0.000  0.000  0.000  0.000  0.000  0.000  0.000  0.000  0.000  0.000
    5  0.001  0.008  0.009  0.000  0.000  0.000  0.000  0.000  0.000  0.017
    6  0.001  0.000  0.021  0.006  0.000  0.000  0.000  0.000  0.000  0.029
    7  0.003  0.001  0.056  0.001  0.000  0.000  0.000  0.000  0.000  0.061
    8  0.001  0.004  0.015  0.001  0.000  0.000  0.000  0.000  0.000  0.021
    9  0.003  0.000  0.035  0.004  0.000  0.000  0.000  0.000  0.000  0.043
   10  0.008  0.003  0.097  0.002  0.000  0.000  0.000  0.000  0.000  0.110
tot    0.017  0.018  0.234  0.014  0.035  0.032  0.000  0.168  0.173  0.693

band    21 # energy   -3.58557937 # occ.  1.00000000

ion      s     py     pz     px    dxy    dyz    dz2    dxz  x2-y2    tot
    1  0.000  0.012  0.000  0.000  0.001  0.012  0.000  0.069  0.001  0.096
    2  0.000  0.012  0.000  0.001  0.001  0.006  0.000  0.076  0.001  0.097
    3  0.000  0.000  0.000  0.013  0.000  0.000  0.000  0.000  0.000  0.013
    4  0.000  0.000  0.000  0.037  0.000  0.000  0.000  0.000  0.000  0.037
    5  0.009  0.000  0.073  0.021  0.000  0.000  0.000  0.000  0.001  0.104
    6  0.003  0.000  0.023  0.021  0.000  0.000  0.000  0.000  0.000  0.048
    7  0.002  0.000  0.014  0.022  0.000  0.000  0.000  0.001  0.000  0.039
    8  0.003  0.000  0.072  0.023  0.000  0.000  0.000  0.000  0.001  0.099
    9  0.001  0.001  0.023  0.012  0.000  0.000  0.000  0.000  0.000  0.038
   10  0.001  0.000  0.014  0.011  0.000  0.000  0.000  0.000  0.000  0.027
tot    0.018  0.026  0.220  0.160  0.003  0.019  0.000  0.147  0.005  0.598

band    22 # energy   -3.58556861 # occ.  1.00000000

ion      s     py     pz     px    dxy    dyz    dz2    dxz  x2-y2    tot
    1  0.000  0.000  0.000  0.012  0.001  0.069  0.000  0.012  0.001  0.096
    2  0.000  0.001  0.000  0.012  0.001  0.076  0.000  0.006  0.001  0.097
    3  0.000  0.013  0.000  0.000  0.000  0.000  0.000  0.000  0.000  0.013
    4  0.000  0.037  0.000  0.000  0.000  0.000  0.000  0.000  0.000  0.037
    5  0.000  0.022  0.000  0.000  0.000  0.001  0.000  0.000  0.000  0.024
    6  0.006  0.021  0.051  0.000  0.001  0.000  0.000  0.000  0.000  0.079
    7  0.007  0.021  0.059  0.000  0.001  0.000  0.000  0.000  0.000  0.089
    8  0.000  0.009  0.000  0.000  0.000  0.000  0.000  0.000  0.000  0.010
    9  0.002  0.018  0.050  0.000  0.001  0.000  0.000  0.000  0.000  0.072
   10  0.003  0.019  0.059  0.001  0.001  0.000  0.000  0.000  0.000  0.082
tot    0.018  0.160  0.220  0.026  0.005  0.147  0.000  0.019  0.003  0.598

band    23 # energy   -3.40504841 # occ.  1.00000000

ion      s     py     pz     px    dxy    dyz    dz2    dxz  x2-y2    tot
    1  0.000  0.000  0.014  0.000  0.000  0.000  0.013  0.000  0.000  0.027
    2  0.000  0.000  0.014  0.000  0.000  0.000  0.012  0.000  0.000  0.026
    3  0.006  0.000  0.006  0.000  0.000  0.000  0.000  0.000  0.000  0.013
    4  0.000  0.000  0.004  0.000  0.000  0.000  0.000  0.000  0.000  0.004
    5  0.001  0.000  0.061  0.001  0.000  0.000  0.000  0.000  0.000  0.063
    6  0.001  0.000  0.061  0.000  0.000  0.000  0.000  0.000  0.000  0.063
    7  0.001  0.000  0.061  0.000  0.000  0.000  0.000  0.000  0.000  0.063
    8  0.000  0.000  0.064  0.004  0.000  0.000  0.000  0.000  0.000  0.068
    9  0.000  0.003  0.064  0.001  0.000  0.000  0.000  0.000  0.000  0.068
   10  0.000  0.003  0.064  0.001  0.000  0.000  0.000  0.000  0.000  0.068
tot    0.010  0.007  0.414  0.007  0.000  0.000  0.025  0.000  0.000  0.463

band    24 # energy   -3.15532633 # occ.  1.00000000

ion      s     py     pz     px    dxy    dyz    dz2    dxz  x2-y2    tot
    1  0.000  0.000  0.000  0.007  0.190  0.124  0.000  0.006  0.001  0.327
    2  0.000  0.005  0.000  0.002  0.056  0.055  0.000  0.083  0.150  0.351
    3  0.000  0.003  0.000  0.001  0.000  0.000  0.000  0.000  0.000  0.004
    4  0.000  0.012  0.000  0.004  0.000  0.000  0.000  0.000  0.000  0.017
    5  0.000  0.001  0.005  0.000  0.001  0.000  0.000  0.000  0.000  0.006
    6  0.000  0.000  0.017  0.000  0.001  0.000  0.000  0.000  0.000  0.019
    7  0.000  0.000  0.004  0.000  0.001  0.000  0.000  0.000  0.000  0.006
    8  0.001  0.011  0.006  0.001  0.001  0.000  0.000  0.000  0.000  0.019
    9  0.002  0.003  0.023  0.001  0.000  0.000  0.000  0.000  0.000  0.030
   10  0.001  0.007  0.006  0.006  0.000  0.000  0.000  0.000  0.000  0.020
tot    0.003  0.042  0.060  0.023  0.250  0.180  0.000  0.089  0.152  0.799

band    25 # energy   -3.15532466 # occ.  1.00000000

ion      s     py     pz     px    dxy    dyz    dz2    dxz  x2-y2    tot
    1  0.000  0.007  0.000  0.000  0.001  0.005  0.000  0.124  0.190  0.327
    2  0.000  0.002  0.000  0.005  0.150  0.083  0.000  0.055  0.056  0.351
    3  0.000  0.001  0.000  0.003  0.000  0.000  0.000  0.000  0.000  0.004
    4  0.000  0.004  0.000  0.012  0.000  0.000  0.000  0.000  0.000  0.017
    5  0.000  0.000  0.012  0.000  0.000  0.000  0.000  0.000  0.001  0.014
    6  0.000  0.000  0.000  0.001  0.000  0.000  0.000  0.000  0.001  0.002
    7  0.000  0.000  0.013  0.000  0.001  0.000  0.000  0.000  0.001  0.015
    8  0.002  0.004  0.017  0.004  0.000  0.000  0.000  0.000  0.000  0.027
    9  0.000  0.004  0.000  0.011  0.000  0.000  0.000  0.000  0.001  0.016
   10  0.002  0.000  0.018  0.006  0.000  0.000  0.000  0.000  0.000  0.027
tot    0.003  0.023  0.060  0.042  0.152  0.089  0.000  0.180  0.250  0.799

band    26 # energy   -3.06729070 # occ.  1.00000000

ion      s     py     pz     px    dxy    dyz    dz2    dxz  x2-y2    tot
    1  0.013  0.000  0.000  0.000  0.000  0.000  0.416  0.000  0.000  0.429
    2  0.012  0.000  0.000  0.000  0.000  0.000  0.448  0.000  0.000  0.460
    3  0.000  0.000  0.000  0.000  0.000  0.000  0.000  0.000  0.000  0.000
    4  0.000  0.000  0.000  0.000  0.000  0.000  0.000  0.000  0.000  0.000
    5  0.000  0.002  0.000  0.000  0.000  0.000  0.000  0.000  0.000  0.002
    6  0.000  0.000  0.000  0.001  0.000  0.000  0.000  0.000  0.000  0.002
    7  0.000  0.000  0.000  0.001  0.000  0.000  0.000  0.000  0.000  0.002
    8  0.000  0.001  0.000  0.000  0.000  0.001  0.000  0.000  0.000  0.002
    9  0.000  0.000  0.000  0.001  0.000  0.000  0.000  0.000  0.000  0.002
   10  0.000  0.000  0.000  0.001  0.000  0.000  0.000  0.000  0.000  0.002
tot    0.025  0.005  0.000  0.005  0.000  0.001  0.864  0.001  0.000  0.902

band    27 # energy   -3.03041845 # occ.  1.00000000

ion      s     py     pz     px    dxy    dyz    dz2    dxz  x2-y2    tot
    1  0.000  0.001  0.000  0.000  0.265  0.134  0.000  0.011  0.009  0.420
    2  0.000  0.001  0.000  0.000  0.158  0.068  0.000  0.068  0.100  0.394
    3  0.000  0.001  0.000  0.019  0.000  0.000  0.000  0.000  0.000  0.020
    4  0.000  0.000  0.000  0.006  0.000  0.000  0.000  0.000  0.000  0.006
    5  0.002  0.000  0.005  0.000  0.000  0.000  0.001  0.000  0.000  0.008
    6  0.000  0.000  0.000  0.000  0.000  0.000  0.000  0.000  0.000  0.002
    7  0.001  0.000  0.003  0.000  0.000  0.000  0.000  0.000  0.000  0.005
    8  0.001  0.000  0.001  0.009  0.000  0.000  0.000  0.000  0.001  0.013
    9  0.000  0.001  0.000  0.000  0.000  0.000  0.000  0.000  0.000  0.001
   10  0.001  0.003  0.001  0.001  0.000  0.000  0.000  0.000  0.000  0.006
tot    0.005  0.007  0.010  0.036  0.424  0.201  0.001  0.079  0.111  0.875

band    28 # energy   -3.03041176 # occ.  1.00000000

ion      s     py     pz     px    dxy    dyz    dz2    dxz  x2-y2    tot
    1  0.000  0.000  0.000  0.001  0.009  0.011  0.000  0.134  0.265  0.420
    2  0.000  0.000  0.000  0.001  0.100  0.068  0.000  0.068  0.158  0.394
    3  0.000  0.019  0.000  0.001  0.000  0.000  0.000  0.000  0.000  0.020
    4  0.000  0.006  0.000  0.000  0.000  0.000  0.000  0.000  0.000  0.006
    5  0.000  0.000  0.000  0.000  0.001  0.000  0.000  0.000  0.000  0.002
    6  0.002  0.000  0.005  0.000  0.000  0.000  0.001  0.000  0.000  0.008
    7  0.001  0.000  0.003  0.000  0.000  0.000  0.000  0.000  0.000  0.005
    8  0.000  0.000  0.000  0.001  0.000  0.000  0.000  0.000  0.000  0.001
    9  0.001  0.006  0.001  0.002  0.001  0.000  0.000  0.000  0.000  0.012
   10  0.001  0.003  0.001  0.001  0.001  0.000  0.000  0.000  0.000  0.007
tot    0.005  0.036  0.010  0.007  0.111  0.079  0.001  0.201  0.424  0.875

band    29 # energy   -2.96379457 # occ.  1.00000000

ion      s     py     pz     px    dxy    dyz    dz2    dxz  x2-y2    tot
    1  0.015  0.000  0.001  0.000  0.000  0.000  0.314  0.000  0.000  0.330
    2  0.016  0.000  0.001  0.000  0.000  0.000  0.282  0.000  0.000  0.299
    3  0.001  0.000  0.019  0.000  0.000  0.000  0.000  0.000  0.000  0.020
    4  0.006  0.000  0.030  0.000  0.000  0.000  0.000  0.000  0.000  0.036
    5  0.003  0.000  0.020  0.001  0.000  0.000  0.001  0.000  0.000  0.025
    6  0.003  0.000  0.020  0.000  0.000  0.000  0.001  0.000  0.000  0.025
    7  0.003  0.000  0.020  0.000  0.000  0.000  0.001  0.000  0.000  0.025
    8  0.002  0.000  0.004  0.001  0.000  0.000  0.001  0.000  0.000  0.008
    9  0.002  0.001  0.004  0.000  0.000  0.000  0.001  0.000  0.000  0.008
   10  0.002  0.001  0.004  0.000  0.000  0.000  0.001  0.000  0.000  0.008
tot    0.052  0.003  0.126  0.003  0.000  0.000  0.602  0.000  0.000  0.787

band    30 # energy   -2.18973757 # occ.  1.00000000

ion      s     py     pz     px    dxy    dyz    dz2    dxz  x2-y2    tot
    1  0.000  0.001  0.000  0.029  0.019  0.000  0.000  0.011  0.011  0.071
    2  0.000  0.004  0.000  0.026  0.029  0.005  0.000  0.007  0.001  0.071
    3  0.000  0.001  0.000  0.011  0.000  0.000  0.000  0.000  0.000  0.012
    4  0.000  0.001  0.000  0.018  0.000  0.000  0.000  0.000  0.000  0.019
    5  0.003  0.008  0.007  0.010  0.000  0.000  0.000  0.000  0.002  0.029
    6  0.000  0.020  0.001  0.091  0.000  0.000  0.000  0.000  0.000  0.113
    7  0.001  0.004  0.004  0.062  0.001  0.000  0.000  0.000  0.000  0.072
    8  0.001  0.006  0.013  0.043  0.000  0.000  0.000  0.000  0.002  0.065
    9  0.000  0.011  0.001  0.085  0.000  0.000  0.000  0.000  0.000  0.098
   10  0.000  0.000  0.007  0.073  0.000  0.000  0.000  0.000  0.001  0.082
tot    0.005  0.055  0.033  0.449  0.050  0.005  0.001  0.019  0.017  0.632

band    31 # energy   -2.18970956 # occ.  1.00000000

ion      s     py     pz     px    dxy    dyz    dz2    dxz  x2-y2    tot
    1  0.000  0.029  0.000  0.001  0.011  0.011  0.000  0.000  0.019  0.071
    2  0.000  0.026  0.000  0.004  0.001  0.007  0.000  0.005  0.029  0.071
    3  0.000  0.011  0.000  0.001  0.000  0.000  0.000  0.000  0.000  0.012
    4  0.000  0.018  0.000  0.001  0.000  0.000  0.000  0.000  0.000  0.019
    5  0.000  0.112  0.000  0.001  0.000  0.000  0.000  0.000  0.000  0.114
    6  0.003  0.017  0.007  0.001  0.001  0.000  0.000  0.000  0.000  0.030
    7  0.001  0.034  0.004  0.030  0.001  0.000  0.000  0.000  0.000  0.071
    8  0.000  0.094  0.001  0.003  0.000  0.000  0.000  0.000  0.000  0.098
    9  0.001  0.049  0.013  0.001  0.001  0.000  0.000  0.000  0.000  0.065