<?xml version="1.0" encoding="ISO-8859-1"?>
<modeling>
 <generator>
  <i name="program" type="string">vasp </i>
  <i name="version" type="string">5.4.4.18Apr17-6-g9f103f2a35  </i>
  <i name="subversion" type="string">(build May  1 2020 15:48:39) complex            parallel </i>
  <i name="platform" type="string">LinuxGNU </i>
  <i name="date" type="string">2020 06 15 </i>
  <i name="time" type="string">10:53:29 </i>
 </generator>
 <incar>
  <i type="int" name="ISTART">     1</i>
  <i type="string" name="PREC">accurate</i>
  <i type="string" name="ALGO"> Normal</i>
  <i type="int" name="ISPIN">     2</i>
  <i name="AMIN">      0.01000000</i>
  <i type="int" name="NELM">   400</i>
  <i type="int" name="IBRION">     2</i>
  <i name="EDIFF">      0.00010000</i>
  <i type="int" name="NSW">    99</i>
  <i type="int" name="ISIF">     3</i>
  <i name="ENCUT">    520.00000000</i>
  <v name="MAGMOM">      5.00000000      5.00000000      0.60000000      0.60000000      0.60000000      0.60000000      0.60000000      0.60000000      0.60000000      0.60000000</v>
  <i type="string" name="LREAL"> Auto</i>
  <i type="int" name="ISMEAR">    -5</i>
  <i name="SIGMA">      0.05000000</i>
  <i type="logical" name="LWAVE"> F  </i>
  <i type="int" name="LORBIT">    11</i>
  <v type="int" name="KPOINT_BSE">    -1     0     0     0</v>
  <i type="int" name="NELM">   400</i>
  <i type="string" name="GGA"> Bo</i>
  <i name="PARAM1">      0.18333333</i>
  <i name="PARAM2">      0.22000000</i>
  <i type="logical" name="LUSE_VDW"> T  </i>
  <i name="AGGAC">      0.00000000</i>
 </incar>
 <structure name="primitive_cell" >
  <crystal>
   <varray name="basis" >
    <v>       6.90777700      -0.00000000       0.00000000 </v>
    <v>       3.45388800       5.98231000       0.00000000 </v>
    <v>       0.00000000       0.00000000      23.44458800 </v>
   </varray>
   <i name="volume">    968.83501932 </i>
   <varray name="rec_basis" >
    <v>       0.14476437      -0.08357974       0.00000000 </v>
    <v>       0.00000000       0.16715951      -0.00000000 </v>
    <v>      -0.00000000       0.00000000       0.04265377 </v>
   </varray>
  </crystal>
  <varray name="positions" >
   <v>       0.33333300       0.33333300       0.49992500 </v>
   <v>       0.00042000       0.37322400      -0.42624800 </v>
   <v>      -0.37364300       0.00042000      -0.42624800 </v>
   <v>       0.37322400      -0.37364300      -0.42624800 </v>
   <v>       0.37364300      -0.00042000       0.42624800 </v>
   <v>      -0.37322400       0.37364300       0.42624800 </v>
   <v>      -0.00042000      -0.37322400       0.42624800 </v>
   <v>      -0.33333300      -0.33333300      -0.49992500 </v>
   <v>       0.00000000       0.00000000       0.44821600 </v>
   <v>       0.00000000       0.00000000      -0.44821600 </v>
  </varray>
 </structure>
 <varray name="primitive_index" >
  <v type="int" >        1 </v>
  <v type="int" >        6 </v>
  <v type="int" >        5 </v>
  <v type="int" >        7 </v>
  <v type="int" >        8 </v>
  <v type="int" >       10 </v>
  <v type="int" >        9 </v>
  <v type="int" >        2 </v>
  <v type="int" >        3 </v>
  <v type="int" >        4 </v>
 </varray>
 <kpoints>
  <generation param="Gamma">
   <v type="int" name="divisions">       5        5        1 </v>
   <v name="usershift">      0.00000000       0.00000000       0.00000000 </v>
   <v name="genvec1">      0.20000000       0.00000000       0.00000000 </v>
   <v name="genvec2">      0.00000000       0.20000000       0.00000000 </v>
   <v name="genvec3">      0.00000000       0.00000000       1.00000000 </v>
   <v name="shift">      0.00000000       0.00000000       0.00000000 </v>
  </generation>
  <varray name="kpointlist" >
   <v>       0.00000000       0.00000000       0.00000000 </v>
   <v>       0.20000000       0.00000000       0.00000000 </v>
   <v>       0.40000000       0.00000000       0.00000000 </v>
   <v>       0.40000000       0.20000000       0.00000000 </v>
   <v>      -0.40000000       0.20000000       0.00000000 </v>
  </varray>
  <varray name="weights" >
   <v>       0.04000000 </v>
   <v>       0.24000000 </v>
   <v>       0.24000000 </v>
   <v>       0.24000000 </v>
   <v>       0.24000000 </v>
  </varray>
  <varray name="tetrahedronlist"  type="int" >
   <v type="int" >        6        1        1        2        2 </v>
   <v type="int" >       12        1        2        2        2 </v>
   <v type="int" >       12        2        2        3        4 </v>
   <v type="int" >       12        2        2        2        4 </v>
   <v type="int" >       12        2        3        3        4 </v>
   <v type="int" >       12        2        3        4        4 </v>
   <v type="int" >        6        2        2        4        4 </v>
   <v type="int" >       12        3        3        3        5 </v>
   <v type="int" >       12        3        3        4        5 </v>
   <v type="int" >       12        3        4        4        5 </v>
   <v type="int" >        6        3        3        5        5 </v>
   <v type="int" >       12        3        4        5        5 </v>
   <v type="int" >        6        4        4        5        5 </v>
   <v type="int" >       12        4        5        5        5 </v>
   <v type="int" >        6        5        5        5        5 </v>
  </varray>
  <i name="volumeweight">      0.00666667 </i>
 </kpoints>
 <parameters>
  <separator name="general" >
   <i type="string" name="SYSTEM">unknown system</i>
   <i type="logical" name="LCOMPAT"> F  </i>
  </separator>
  <separator name="electronic" >
   <i type="string" name="PREC">accura</i>
   <i name="ENMAX">    520.00000000</i>
   <i name="ENAUG">    402.10800000</i>
   <i name="EDIFF">      0.00010000</i>
   <i type="int" name="IALGO">    38</i>
   <i type="int" name="IWAVPR">    11</i>
   <i type="int" name="NBANDS">    48</i>
   <i name="NELECT">     57.00000000</i>
   <i type="int" name="TURBO">     0</i>
   <i type="int" name="IRESTART">     0</i>
   <i type="int" name="NREBOOT">     0</i>
   <i type="int" name="NMIN">     0</i>
   <i name="EREF">      0.00000000</i>
   <separator name="electronic smearing" >
    <i type="int" name="ISMEAR">    -5</i>
    <i name="SIGMA">      0.05000000</i>
    <i name="KSPACING">      0.50000000</i>
    <i type="logical" name="KGAMMA"> T  </i>
   </separator>
   <separator name="electronic projectors" >
    <i type="logical" name="LREAL"> T  </i>
    <v name="ROPT">     -0.00025000     -0.00025000     -0.00025000     -0.00025000</v>
    <i type="int" name="LMAXPAW">  -100</i>
    <i type="int" name="LMAXMIX">     2</i>
    <i type="logical" name="NLSPLINE"> F  </i>
   </separator>
   <separator name="electronic startup" >
    <i type="int" name="ISTART">     0</i>
    <i type="int" name="ICHARG">     2</i>
    <i type="int" name="INIWAV">     1</i>
   </separator>
   <separator name="electronic spin" >
    <i type="int" name="ISPIN">     2</i>
    <i type="logical" name="LNONCOLLINEAR"> F  </i>
    <v name="MAGMOM">      5.00000000      5.00000000      0.60000000      0.60000000      0.60000000      0.60000000      0.60000000      0.60000000      0.60000000      0.60000000</v>
    <i name="NUPDOWN">     -1.00000000</i>
    <i type="logical" name="LSORBIT"> F  </i>
    <v name="SAXIS">      0.00000000      0.00000000      1.00000000</v>
    <i type="logical" name="LSPIRAL"> F  </i>
    <v name="QSPIRAL">      0.00000000      0.00000000      0.00000000</v>
    <i type="logical" name="LZEROZ"> F  </i>
   </separator>
   <separator name="electronic exchange-correlation" >
    <i type="logical" name="LASPH"> F  </i>
    <i type="logical" name="LMETAGGA"> F  </i>
   </separator>
   <separator name="electronic convergence" >
    <i type="int" name="NELM">   400</i>
    <i type="int" name="NELMDL">     0</i>
    <i type="int" name="NELMIN">     2</i>
    <i name="ENINI">    520.00000000</i>
    <separator name="electronic convergence detail" >
     <i type="logical" name="LDIAG"> T  </i>
     <i type="logical" name="LSUBROT"> F  </i>
     <i name="WEIMIN">      0.00100000</i>
     <i name="EBREAK">      0.00000052</i>
     <i name="DEPER">      0.30000000</i>
     <i type="int" name="NRMM">     4</i>
     <i name="TIME">      0.40000000</i>
    </separator>
   </separator>
   <separator name="electronic mixer" >
    <i name="AMIX">      0.40000000</i>
    <i name="BMIX">      1.00000000</i>
    <i name="AMIN">      0.01000000</i>
    <i name="AMIX_MAG">      1.60000000</i>
    <i name="BMIX_MAG">      1.00000000</i>
    <separator name="electronic mixer details" >
     <i type="int" name="IMIX">     4</i>
     <i type="logical" name="MIXFIRST"> F  </i>
     <i type="int" name="MAXMIX">   -45</i>
     <i name="WC">    100.00000000</i>
     <i type="int" name="INIMIX">     1</i>
     <i type="int" name="MIXPRE">     1</i>
     <i type="int" name="MREMOVE">     5</i>
    </separator>
   </separator>
   <separator name="electronic dipolcorrection" >
    <i type="logical" name="LDIPOL"> F  </i>
    <i type="logical" name="LMONO"> F  </i>
    <i type="int" name="IDIPOL">     0</i>
    <i name="EPSILON">      1.00000000</i>
    <v name="DIPOL">   -100.00000000   -100.00000000   -100.00000000</v>
    <i name="EFIELD">      0.00000000</i>
   </separator>
  </separator>
  <separator name="grids" >
   <i type="int" name="NGX">    54</i>
   <i type="int" name="NGY">    54</i>
   <i type="int" name="NGZ">   180</i>
   <i type="int" name="NGXF">   108</i>
   <i type="int" name="NGYF">   108</i>
   <i type="int" name="NGZF">   360</i>
   <i type="logical" name="ADDGRID"> F  </i>
  </separator>
  <separator name="ionic" >
   <i type="int" name="NSW">    99</i>
   <i type="int" name="IBRION">     2</i>
   <i type="int" name="MDALGO">     0</i>
   <i type="int" name="ISIF">     3</i>
   <i name="PSTRESS">      0.00000000</i>
   <i name="EDIFFG">      0.00100000</i>
   <i type="int" name="NFREE">     1</i>
   <i name="POTIM">      0.50000000</i>
   <i name="SMASS">     -3.00000000</i>
   <i name="SCALEE">      1.00000000</i>
  </separator>
  <separator name="ionic md" >
   <i name="TEBEG">      0.00010000</i>
   <i name="TEEND">      0.00010000</i>
   <i type="int" name="NBLOCK">     1</i>
   <i type="int" name="KBLOCK">    99</i>
   <i type="int" name="NPACO">   256</i>
   <i name="APACO">     16.00000000</i>
  </separator>
  <separator name="symmetry" >
   <i type="int" name="ISYM">     2</i>
   <i name="SYMPREC">      0.00001000</i>
  </separator>
  <separator name="dos" >
   <i type="int" name="LORBIT">    11</i>
   <v name="RWIGS">     -1.00000000     -1.00000000     -1.00000000     -1.00000000</v>
   <i type="int" name="NEDOS">   301</i>
   <i name="EMIN">     10.00000000</i>
   <i name="EMAX">    -10.00000000</i>
   <i name="EFERMI">      0.00000000</i>
  </separator>
  <separator name="writing" >
   <i type="int" name="NWRITE">     2</i>
   <i type="logical" name="LWAVE"> F  </i>
   <i type="logical" name="LDOWNSAMPLE"> F  </i>
   <i type="logical" name="LCHARG"> T  </i>
   <i type="logical" name="LPARD"> F  </i>
   <i type="logical" name="LVTOT"> F  </i>
   <i type="logical" name="LVHAR"> F  </i>
   <i type="logical" name="LELF"> F  </i>
   <i type="logical" name="LOPTICS"> F  </i>
   <v name="STM">      0.00000000      0.00000000      0.00000000      0.00000000      0.00000000      0.00000000      0.00000000</v>
  </separator>
  <separator name="performance" >
   <i type="int" name="NPAR">    16</i>
   <i type="int" name="NSIM">     4</i>
   <i type="int" name="NBLK">    -1</i>
   <i type="logical" name="LPLANE"> T  </i>
   <i type="logical" name="LSCALAPACK"> T  </i>
   <i type="logical" name="LSCAAWARE"> F  </i>
   <i type="logical" name="LSCALU"> F  </i>
   <i type="logical" name="LASYNC"> F  </i>
   <i type="logical" name="LORBITALREAL"> F  </i>
  </separator>
  <separator name="miscellaneous" >
   <i type="int" name="IDIOT">     3</i>
   <i type="int" name="ISPECIAL">     0</i>
   <i type="logical" name="LMUSIC"> F  </i>
   <v name="POMASS">     51.99600000     28.08500000     30.97400000    127.60000000</v>
   <v name="DARWINR">      0.00000000      0.00000000      0.00000000      0.00000000</v>
   <v name="DARWINV">      1.00000000      1.00000000      1.00000000      1.00000000</v>
   <i type="logical" name="LCORR"> T  </i>
  </separator>
  <i type="logical" name="GGA_COMPAT"> T  </i>
  <i type="logical" name="LBERRY"> F  </i>
  <i type="int" name="ICORELEVEL">     0</i>
  <i type="logical" name="LDAU"> F  </i>
  <i type="int" name="I_CONSTRAINED_M">     0</i>
  <separator name="electronic exchange-correlation" >
   <i type="string" name="GGA">BO</i>
   <i type="int" name="VOSKOWN">     0</i>
   <i type="logical" name="LHFCALC"> F  </i>
   <i type="string" name="PRECFOCK"></i>
   <i type="logical" name="LSYMGRAD"> F  </i>
   <i type="logical" name="LHFONE"> F  </i>
   <i type="logical" name="LRHFCALC"> F  </i>
   <i type="logical" name="LTHOMAS"> F  </i>
   <i type="logical" name="LMODELHF"> F  </i>
   <i name="ENCUT4O">     -1.00000000</i>
   <i type="int" name="EXXOEP">     0</i>
   <i type="int" name="FOURORBIT">     0</i>
   <i name="AEXX">      0.00000000</i>
   <i name="HFALPHA">      0.00000000</i>
   <i name="MCALPHA">      0.00000000</i>
   <i name="ALDAX">      1.00000000</i>
   <i name="AGGAX">      1.00000000</i>
   <i name="ALDAC">      1.00000000</i>
   <i name="AGGAC">      0.00000000</i>
   <i type="int" name="NKREDX">     1</i>
   <i type="int" name="NKREDY">     1</i>
   <i type="int" name="NKREDZ">     1</i>
   <i type="logical" name="SHIFTRED"> F  </i>
   <i type="logical" name="ODDONLY"> F  </i>
   <i type="logical" name="EVENONLY"> F  </i>
   <i type="int" name="LMAXFOCK">     0</i>
   <i type="int" name="NMAXFOCKAE">     0</i>
   <i type="logical" name="LFOCKAEDFT"> F  </i>
   <i name="HFSCREEN">      0.00000000</i>
   <i name="HFSCREENC">      0.00000000</i>
   <i type="int" name="NBANDSGWLOW">     0</i>
  </separator>
  <separator name="vdW DFT" >
   <i type="logical" name="LUSE_VDW"> T  </i>
   <i name="Zab_VDW">     -0.84910000</i>
   <i name="PARAM1">      0.18333333</i>
   <i name="PARAM2">      0.22000000</i>
   <i name="PARAM3">      0.00000000</i>
  </separator>
  <separator name="model GW" >
   <i type="int" name="MODEL_GW">     0</i>
   <i name="MODEL_EPS0">     58.13010116</i>
   <i name="MODEL_ALPHA">      1.00000000</i>
  </separator>
  <separator name="linear response parameters" >
   <i type="logical" name="LEPSILON"> F  </i>
   <i type="logical" name="LRPA"> F  </i>
   <i type="logical" name="LNABLA"> F  </i>
   <i type="logical" name="LVEL"> F  </i>
   <i type="int" name="KINTER">     0</i>
   <i name="CSHIFT">      0.10000000</i>
   <i name="OMEGAMAX">     -1.00000000</i>
   <i name="DEG_THRESHOLD">      0.00200000</i>
   <i name="RTIME">     -0.10000000</i>
   <i name="WPLASMAI">      0.00000000</i>
   <v name="DFIELD">      0.00000000      0.00000000      0.00000000</v>
   <v name="WPLASMA">      0.00000000      0.00000000      0.00000000      0.00000000      0.00000000      0.00000000      0.00000000      0.00000000      0.00000000</v>
  </separator>
  <separator name="orbital magnetization" >
   <i type="logical" name="NUCIND"> F  </i>
   <v name="MAGPOS">      0.00000000      0.00000000      0.00000000</v>
   <i type="logical" name="LNICSALL"> T  </i>
   <i type="logical" name="ORBITALMAG"> F  </i>
   <i type="logical" name="LMAGBLOCH"> F  </i>
   <i type="logical" name="LCHIMAG"> F  </i>
   <i type="logical" name="LGAUGE"> T  </i>
   <i type="int" name="MAGATOM">     0</i>
   <v name="MAGDIPOL">      0.00000000      0.00000000      0.00000000</v>
   <v name="AVECCONST">      0.00000000      0.00000000      0.00000000</v>
  </separator>
  <separator name="response functions" >
   <i type="logical" name="LADDER"> F  </i>
   <i type="logical" name="LRPAFORCE"> F  </i>
   <i type="logical" name="LFXC"> F  </i>
   <i type="logical" name="LHARTREE"> T  </i>
   <i type="int" name="IBSE">     0</i>
   <v type="int" name="KPOINT">    -1     0     0     0</v>
   <i type="logical" name="LTCTE"> F  </i>
   <i type="logical" name="LTETE"> F  </i>
   <i type="logical" name="LTRIPLET"> F  </i>
   <i type="logical" name="LFXCEPS"> F  </i>
   <i type="logical" name="LFXHEG"> F  </i>
   <i type="int" name="NATURALO">     2</i>
   <i type="logical" name="L2ORDER"> F  </i>
   <i type="logical" name="LMP2LT"> F  </i>
   <i type="logical" name="LUSEW"> F  </i>
   <i name="ENCUTGW">     -2.00000000</i>
   <i name="ENCUTGWSOFT">     -2.00000000</i>
   <i name="ENCUTLF">     -1.00000000</i>
   <i type="int" name="LMAXMP2">    -1</i>
   <i name="SCISSOR">      0.00000000</i>
   <i type="int" name="NOMEGA">     0</i>
   <i type="int" name="NOMEGAR">     0</i>
   <i type="int" name="NBANDSGW">    -1</i>
   <i type="int" name="NBANDSO">    -1</i>
   <i type="int" name="NBANDSV">    -1</i>
   <i type="int" name="NELM">   400</i>
   <i type="int" name="NELMHF">     1</i>
   <i type="int" name="DIM">     3</i>
   <i type="int" name="ANTIRES">     0</i>
   <i name="OMEGAMAX">    -30.00000000</i>
   <i name="OMEGAMIN">    -30.00000000</i>
   <i name="OMEGATL">   -200.00000000</i>
   <i type="int" name="OMEGAGRID">   140</i>
   <i name="CSHIFT">     -0.10000000</i>
   <i type="logical" name="SELFENERGY"> F  </i>
   <i type="logical" name="LSPECTRAL"> F  </i>
   <i type="logical" name="LSPECTRALGW"> F  </i>
   <i type="logical" name="LSINGLES"> F  </i>
   <i type="logical" name="LFERMIGW"> F  </i>
   <i type="logical" name="ODDONLYGW"> F  </i>
   <i type="logical" name="EVENONLYGW"> F  </i>
   <i type="int" name="NKREDLFX">     1</i>
   <i type="int" name="NKREDLFY">     1</i>
   <i type="int" name="NKREDLFZ">     1</i>
   <i type="int" name="MAXMEM">  2800</i>
   <i type="int" name="TELESCOPE">     0</i>
   <i type="int" name="TAUPAR">     1</i>
   <i type="int" name="OMEGAPAR">    -1</i>
   <i name="LAMBDA">      1.00000000</i>
  </separator>
  <separator name="External order field" >
   <i name="OFIELD_KAPPA">      0.00000000</i>
   <v name="OFIELD_K">      0.00000000      0.00000000      0.00000000</v>
   <i name="OFIELD_Q6_NEAR">      0.00000000</i>
   <i name="OFIELD_Q6_FAR">      0.00000000</i>
   <i name="OFIELD_A">      0.00000000</i>
  </separator>
 </parameters>
 <atominfo>
  <atoms>      10 </atoms>
  <types>       4 </types>
  <array name="atoms" >
   <dimension dim="1">ion</dimension>
   <field type="string">element</field>
   <field type="int">atomtype</field>
   <set>
    <rc><c>Cr</c><c>   1</c></rc>
    <rc><c>Cr</c><c>   1</c></rc>
    <rc><c>Si</c><c>   2</c></rc>
    <rc><c>P </c><c>   3</c></rc>
    <rc><c>Te</c><c>   4</c></rc>
    <rc><c>Te</c><c>   4</c></rc>
    <rc><c>Te</c><c>   4</c></rc>
    <rc><c>Te</c><c>   4</c></rc>
    <rc><c>Te</c><c>   4</c></rc>
    <rc><c>Te</c><c>   4</c></rc>
   </set>
  </array>
  <array name="atomtypes" >
   <dimension dim="1">type</dimension>
   <field type="int">atomspertype</field>
   <field type="string">element</field>
   <field>mass</field>
   <field>valence</field>
   <field type="string">pseudopotential</field>
   <set>
    <rc><c>   2</c><c>Cr</c><c>     51.99600000</c><c>      6.00000000</c><c> PAW_PBE Cr 06Sep2000                   </c></rc>
    <rc><c>   1</c><c>Si</c><c>     28.08500000</c><c>      4.00000000</c><c> PAW_PBE Si 05Jan2001                   </c></rc>
    <rc><c>   1</c><c>P </c><c>     30.97400000</c><c>      5.00000000</c><c>  PAW_PBE P 17Jan2003                   </c></rc>
    <rc><c>   6</c><c>Te</c><c>    127.60000000</c><c>      6.00000000</c><c> PAW_PBE Te 08Apr2002                   </c></rc>
   </set>
  </array>
 </atominfo>
 <structure name="initialpos" >
  <crystal>
   <varray name="basis" >
    <v>       6.90777700      -0.00000000       0.00000000 </v>
    <v>       3.45388800       5.98231000       0.00000000 </v>
    <v>       0.00000000       0.00000000      23.44458800 </v>
   </varray>
   <i name="volume">    968.83501932 </i>
   <varray name="rec_basis" >
    <v>       0.14476437      -0.08357974       0.00000000 </v>
    <v>       0.00000000       0.16715951      -0.00000000 </v>
    <v>      -0.00000000       0.00000000       0.04265377 </v>
   </varray>
  </crystal>
  <varray name="positions" >
   <v>       0.33333300       0.33333300       0.49992500 </v>
   <v>       0.66666700       0.66666700       0.50007500 </v>
   <v>       0.00000000       0.00000000       0.44821600 </v>
   <v>       0.00000000       0.00000000       0.55178400 </v>
   <v>       0.62635700       0.00042000       0.57375200 </v>
   <v>       0.00042000       0.37322400       0.57375200 </v>
   <v>       0.37322400       0.62635700       0.57375200 </v>
   <v>       0.37364300       0.99958000       0.42624800 </v>
   <v>       0.99958000       0.62677600       0.42624800 </v>
   <v>       0.62677600       0.37364300       0.42624800 </v>
  </varray>
 </structure>
 <calculation>
  <scstep>
   <time name="dav">   22.57   22.74</time>
   <time name="total">   74.61   75.23</time>
   <energy>
    <i name="alphaZ">     11.30429057 </i>
    <i name="ewald">   6221.61188061 </i>
    <i name="hartreedc">  -8152.80360223 </i>
    <i name="XCdc">   -217.75388920 </i>
    <i name="pawpsdc">   1158.02895215 </i>
    <i name="pawaedc">   -849.28417285 </i>
    <i name="eentropy">      0.00000000 </i>
    <i name="bandstr">     26.51278955 </i>
    <i name="atom">   2182.86754148 </i>
    <i name="e_fr_energy">    380.48379008 </i>
    <i name="e_wo_entrp">    380.48379008 </i>
    <i name="e_0_energy">    380.48379008 </i>
   </energy>
  </scstep>
  <scstep>
   <time name="dav">   26.84   27.20</time>
   <time name="total">   26.84   27.21</time>
   <energy>
    <i name="e_fr_energy">      7.94839663 </i>
    <i name="e_wo_entrp">      7.94839663 </i>
    <i name="e_0_energy">      7.94839663 </i>
   </energy>
  </scstep>
  <scstep>
   <time name="dav">   29.66   29.84</time>
   <time name="total">   29.66   29.84</time>
   <energy>
    <i name="e_fr_energy">    -41.51995426 </i>
    <i name="e_wo_entrp">    -41.51995426 </i>
    <i name="e_0_energy">    -41.51995426 </i>
   </energy>
  </scstep>
  <scstep>
   <time name="dav">   32.13   32.23</time>
   <time name="total">   32.14   32.24</time>
   <energy>
    <i name="e_fr_energy">    -44.05587300 </i>
    <i name="e_wo_entrp">    -44.05587300 </i>
    <i name="e_0_energy">    -44.05587300 </i>
   </energy>
  </scstep>
  <scstep>
   <time name="dav">   31.22   31.65</time>
   <time name="total">   33.17   33.61</time>
   <energy>
    <i name="e_fr_energy">    -44.10945712 </i>
    <i name="e_wo_entrp">    -44.10945712 </i>
    <i name="e_0_energy">    -44.10945712 </i>
   </energy>
  </scstep>
  <scstep>
   <time name="dav">   33.42   33.75</time>
   <time name="total">   86.40   87.81</time>
   <energy>
    <i name="e_fr_energy">    -48.35172026 </i>
    <i name="e_wo_entrp">    -48.35172026 </i>
    <i name="e_0_energy">    -48.35172026 </i>
   </energy>
  </scstep>
  <scstep>
   <time name="dav">   29.68   30.36</time>
   <time name="total">   83.46   84.53</time>
   <energy>
    <i name="e_fr_energy">    -42.15083197 </i>
    <i name="e_wo_entrp">    -42.15083197 </i>
    <i name="e_0_energy">    -42.15083197 </i>
   </energy>
  </scstep>
  <scstep>
   <time name="dav">   27.07   27.59</time>
   <time name="total">   80.81   81.98</time>
   <energy>
    <i name="e_fr_energy">    -42.14210294 </i>
    <i name="e_wo_entrp">    -42.14210294 </i>
    <i name="e_0_energy">    -42.14210294 </i>
   </energy>
  </scstep>
  <scstep>
   <time name="dav">   28.41   28.71</time>
   <time name="total">   82.37   82.82</time>
   <energy>
    <i name="e_fr_energy">    -42.57413170 </i>
    <i name="e_wo_entrp">    -42.57413170 </i>
    <i name="e_0_energy">    -42.57413170 </i>
   </energy>
  </scstep>
  <scstep>
   <time name="dav">   27.87   28.47</time>
   <time name="total">   81.82   82.66</time>
   <energy>
    <i name="e_fr_energy">    -43.02859405 </i>
    <i name="e_wo_entrp">    -43.02859405 </i>
    <i name="e_0_energy">    -43.02859405 </i>
   </energy>
  </scstep>
  <scstep>
   <time name="dav">   27.96   28.18</time>
   <time name="total">   82.32   82.79</time>
   <energy>
    <i name="e_fr_energy">    -43.15371846 </i>
    <i name="e_wo_entrp">    -43.15371846 </i>
    <i name="e_0_energy">    -43.15371846 </i>
   </energy>
  </scstep>
  <scstep>
   <time name="dav">   29.14   30.11</time>
   <time name="total">   83.36   84.45</time>
   <energy>
    <i name="e_fr_energy">    -43.44438535 </i>
    <i name="e_wo_entrp">    -43.44438535 </i>
    <i name="e_0_energy">    -43.44438535 </i>
   </energy>
  </scstep>
  <scstep>
   <time name="dav">   24.88   24.97</time>
   <time name="total">   79.26   79.66</time>
   <energy>
    <i name="e_fr_energy">    -43.29022211 </i>
    <i name="e_wo_entrp">    -43.29022211 </i>
    <i name="e_0_energy">    -43.29022211 </i>
   </energy>
  </scstep>
  <scstep>
   <time name="dav">   27.50   27.57</time>
   <time name="total">   80.86   81.12</time>
   <energy>
    <i name="e_fr_energy">    -43.48982541 </i>
    <i name="e_wo_entrp">    -43.48982541 </i>
    <i name="e_0_energy">    -43.48982541 </i>
   </energy>
  </scstep>
  <scstep>
   <time name="dav">   26.11   26.17</time>
   <time name="total">   79.08   79.29</time>
   <energy>
    <i name="e_fr_energy">    -43.52767122 </i>
    <i name="e_wo_entrp">    -43.52767122 </i>
    <i name="e_0_energy">    -43.52767122 </i>
   </energy>
  </scstep>
  <scstep>
   <time name="dav">   24.44   24.49</time>
   <time name="total">   77.48   77.67</time>
   <energy>
    <i name="e_fr_energy">    -43.54491619 </i>
    <i name="e_wo_entrp">    -43.54491619 </i>
    <i name="e_0_energy">    -43.54491619 </i>
   </energy>
  </scstep>
  <scstep>
   <time name="dav">   23.23   23.28</time>
   <time name="total">   76.32   76.45</time>
   <energy>
    <i name="e_fr_energy">    -43.55400679 </i>
    <i name="e_wo_entrp">    -43.55400679 </i>
    <i name="e_0_energy">    -43.55400679 </i>
   </energy>
  </scstep>
  <scstep>
   <time name="dav">   23.82   23.90</time>
   <time name="total">   77.38   77.48</time>
   <energy>
    <i name="e_fr_energy">    -43.55711682 </i>
    <i name="e_wo_entrp">    -43.55711682 </i>
    <i name="e_0_energy">    -43.55711682 </i>
   </energy>
  </scstep>
  <scstep>
   <time name="dav">   22.97   23.18</time>
   <time name="total">   75.96   76.30</time>
   <energy>
    <i name="e_fr_energy">    -43.55909633 </i>
    <i name="e_wo_entrp">    -43.55909633 </i>
    <i name="e_0_energy">    -43.55909633 </i>
   </energy>
  </scstep>
  <scstep>
   <time name="dav">   21.33   21.48</time>
   <time name="total">   74.40   74.63</time>
   <energy>
    <i name="e_fr_energy">    -43.56021306 </i>
    <i name="e_wo_entrp">    -43.56021306 </i>
    <i name="e_0_energy">    -43.56021306 </i>
   </energy>
  </scstep>
  <scstep>
   <time name="dav">   21.42   21.45</time>
   <time name="total">   74.31   74.62</time>
   <energy>
    <i name="e_fr_energy">    -43.56052018 </i>
    <i name="e_wo_entrp">    -43.56052018 </i>
    <i name="e_0_energy">    -43.56052018 </i>
   </energy>
  </scstep>
  <scstep>
   <time name="dav">   21.70   21.73</time>
   <time name="total">   72.72   72.82</time>
   <energy>
    <i name="alphaZ">     11.30429057 </i>
    <i name="ewald">   6221.61188061 </i>
    <i name="hartreedc">  -8163.13512531 </i>
    <i name="XCdc">   -218.79418205 </i>
    <i name="pawpsdc">   1221.50847669 </i>
    <i name="pawaedc">   -913.73333001 </i>
    <i name="eentropy">      0.00000000 </i>
    <i name="bandstr">   -385.19004074 </i>
    <i name="atom">   2182.86754148 </i>
    <i name="e_fr_energy">    -43.56048876 </i>
    <i name="e_wo_entrp">    -43.56048876 </i>
    <i name="e_0_energy">    -43.56048876 </i>
   </energy>
  </scstep>
  <structure>
   <crystal>
    <varray name="basis" >
     <v>       6.90777700      -0.00000000       0.00000000 </v>
     <v>       3.45388800       5.98231000       0.00000000 </v>
     <v>       0.00000000       0.00000000      23.44458800 </v>
    </varray>
    <i name="volume">    968.83501932 </i>
    <varray name="rec_basis" >
     <v>       0.14476437      -0.08357974       0.00000000 </v>
     <v>       0.00000000       0.16715951      -0.00000000 </v>
     <v>      -0.00000000       0.00000000       0.04265377 </v>
    </varray>
   </crystal>
   <varray name="positions" >
    <v>       0.33333300       0.33333300       0.49992500 </v>
    <v>       0.66666700       0.66666700       0.50007500 </v>
    <v>       0.00000000       0.00000000       0.44821600 </v>
    <v>       0.00000000       0.00000000       0.55178400 </v>
    <v>       0.62635700       0.00042000       0.57375200 </v>
    <v>       0.00042000       0.37322400       0.57375200 </v>
    <v>       0.37322400       0.62635700       0.57375200 </v>
    <v>       0.37364300       0.99958000       0.42624800 </v>
    <v>       0.99958000       0.62677600       0.42624800 </v>
    <v>       0.62677600       0.37364300       0.42624800 </v>
   </varray>
  </structure>
  <varray name="forces" >
   <v>       0.00000000      -0.00000000       0.15603756 </v>
   <v>       0.00000000       0.00000000       0.16020553 </v>
   <v>       0.00000000       0.00000000       0.99699342 </v>
   <v>      -0.00000000       0.00000000      -0.70637286 </v>
   <v>       0.06600458      -0.00691128      -0.33069831 </v>
   <v>      -0.03898763      -0.05370600      -0.33069831 </v>
   <v>      -0.02701695       0.06061728      -0.33069831 </v>
   <v>      -0.48342823       0.00829537       0.12841043 </v>
   <v>       0.24889808       0.41451341       0.12841043 </v>
   <v>       0.23453014      -0.42280879       0.12841043 </v>
  </varray>
  <varray name="stress" >
   <v>      -7.05526469      -0.00000057      -0.00000000 </v>
   <v>       0.00000175      -7.05526383       0.00000000 </v>
   <v>      -0.00000000       0.00000000      -7.14677067 </v>
  </varray>
  <energy>
   <i name="e_fr_energy">    -43.56048876 </i>
   <i name="e_wo_entrp">    -43.56048876 </i>
   <i name="e_0_energy">      0.00000000 </i>
  </energy>
  <time name="totalsc"> 1693.75 1705.15</time>
 </calculation>
 <calculation>
  <scstep>
   <time name="dav">   27.63   28.17</time>
   <time name="total">   80.61   81.39</time>
   <energy>
    <i name="alphaZ">     12.03530805 </i>
    <i name="ewald">   6388.53526961 </i>
    <i name="hartreedc">  -8370.47337576 </i>
    <i name="XCdc">   -217.06405756 </i>
    <i name="pawpsdc">   1221.47486663 </i>
    <i name="pawaedc">   -913.69941315 </i>
    <i name="eentropy">      0.00000000 </i>
    <i name="bandstr">   -347.99817566 </i>
    <i name="atom">   2182.86754148 </i>
    <i name="e_fr_energy">    -44.32203637 </i>
    <i name="e_wo_entrp">    -44.32203637 </i>
    <i name="e_0_energy">    -44.32203637 </i>
   </energy>
  </scstep>
  <scstep>
   <time name="dav">   29.32   29.48</time>
   <time name="total">   82.11   82.84</time>
   <energy>
    <i name="e_fr_energy">    -44.21985087 </i>
    <i name="e_wo_entrp">    -44.21985087 </i>
    <i name="e_0_energy">    -44.21985087 </i>
   </energy>
  </scstep>
  <scstep>
   <time name="dav">   30.78   30.86</time>
   <time name="total">   83.74   84.17</time>
   <energy>
    <i name="e_fr_energy">    -43.89397997 </i>
    <i name="e_wo_entrp">    -43.89397997 </i>
    <i name="e_0_energy">    -43.89397997 </i>
   </energy>
  </scstep>
  <scstep>
   <time name="dav">   30.45   30.63</time>
   <time name="total">   83.69   84.03</time>
   <energy>
    <i name="e_fr_energy">    -43.72455709 </i>
    <i name="e_wo_entrp">    -43.72455709 </i>
    <i name="e_0_energy">    -43.72455709 </i>
   </energy>
  </scstep>
  <scstep>
   <time name="dav">   26.28   26.33</time>
   <time name="total">   79.42   79.62</time>
   <energy>
    <i name="e_fr_energy">    -43.71389386 </i>
    <i name="e_wo_entrp">    -43.71389386 </i>
    <i name="e_0_energy">    -43.71389386 </i>
   </energy>
  </scstep>
  <scstep>
   <time name="dav">   28.20   28.22</time>
   <time name="total">   81.51   81.56</time>
   <energy>
    <i name="e_fr_energy">    -43.71378589 </i>
    <i name="e_wo_entrp">    -43.71378589 </i>
    <i name="e_0_energy">    -43.71378589 </i>
   </energy>
  </scstep>
  <scstep>
   <time name="dav">   27.65   27.68</time>
   <time name="total">   81.53   81.80</time>
   <energy>
    <i name="e_fr_energy">    -43.71491874 </i>
    <i name="e_wo_entrp">    -43.71491874 </i>
    <i name="e_0_energy">    -43.71491874 </i>
   </energy>
  </scstep>
  <scstep>
   <time name="dav">   27.30   27.34</time>
   <time name="total">   81.65   81.80</time>
   <energy>
    <i name="e_fr_energy">    -43.71581133 </i>
    <i name="e_wo_entrp">    -43.71581133 </i>
    <i name="e_0_energy">    -43.71581133 </i>
   </energy>
  </scstep>
  <scstep>
   <time name="dav">   24.29   24.42</time>
   <time name="total">   77.39   77.77</time>
   <energy>
    <i name="e_fr_energy">    -43.71716950 </i>
    <i name="e_wo_entrp">    -43.71716950 </i>
    <i name="e_0_energy">    -43.71716950 </i>
   </energy>
  </scstep>
  <scstep>
   <time name="dav">   24.06   24.09</time>
   <time name="total">   77.22   77.41</time>
   <energy>
    <i name="e_fr_energy">    -43.71909241 </i>
    <i name="e_wo_entrp">    -43.71909241 </i>
    <i name="e_0_energy">    -43.71909241 </i>
   </energy>
  </scstep>
  <scstep>
   <time name="dav">   24.24   24.41</time>
   <time name="total">   77.18   77.64</time>
   <energy>
    <i name="e_fr_energy">    -43.72050398 </i>
    <i name="e_wo_entrp">    -43.72050398 </i>
    <i name="e_0_energy">    -43.72050398 </i>
   </energy>
  </scstep>
  <scstep>
   <time name="dav">   26.25   26.30</time>
   <time name="total">   80.48   80.64</time>
   <energy>
    <i name="e_fr_energy">    -43.72102387 </i>
    <i name="e_wo_entrp">    -43.72102387 </i>
    <i name="e_0_energy">    -43.72102387 </i>
   </energy>
  </scstep>
  <scstep>
   <time name="dav">   23.88   24.07</time>
   <time name="total">   76.24   76.57</time>
   <energy>
    <i name="alphaZ">     12.03530805 </i>
    <i name="ewald">   6388.53526961 </i>
    <i name="hartreedc">  -8341.74584737 </i>
    <i name="XCdc">   -217.71676235 </i>
    <i name="pawpsdc">   1247.33252514 </i>
    <i name="pawaedc">   -939.91667432 </i>
    <i name="eentropy">      0.00000000 </i>
    <i name="bandstr">   -375.11242666 </i>
    <i name="atom">   2182.86754148 </i>
    <i name="e_fr_energy">    -43.72106642 </i>
    <i name="e_wo_entrp">    -43.72106642 </i>
    <i name="e_0_energy">    -43.72106642 </i>
   </energy>
  </scstep>
  <structure>
   <crystal>
    <varray name="basis" >
     <v>       6.76560239      -0.00000001      -0.00000000 </v>
     <v>       3.38280073       5.85918319      -0.00000000 </v>
     <v>      -0.00000000       0.00000000      22.95579735 </v>
    </varray>
    <i name="volume">    909.98855433 </i>
    <varray name="rec_basis" >
     <v>       0.14780650      -0.08533612       0.00000000 </v>
     <v>       0.00000000       0.17067225      -0.00000000 </v>
     <v>       0.00000000      -0.00000000       0.04356198 </v>
    </varray>
   </crystal>
   <varray name="positions" >
    <v>       0.33333300       0.33333300       0.50024608 </v>
    <v>       0.66666700       0.66666700       0.50040466 </v>
    <v>       0.00000000       0.00000000       0.45026754 </v>
    <v>      -0.00000000       0.00000000       0.55033047 </v>
    <v>       0.62684583       0.00036427       0.57307151 </v>
    <v>       0.00036427       0.37279090       0.57307151 </v>
    <v>       0.37279090       0.62684583       0.57307151 </v>
    <v>       0.37023338       0.99964690       0.42651223 </v>
    <v>       0.99964690       0.63011873       0.42651223 </v>
    <v>       0.63011873       0.37023338       0.42651223 </v>
   </varray>
  </structure>
  <varray name="forces" >
   <v>       0.00000000       0.00000000       0.03094335 </v>
   <v>       0.00000000       0.00000000       0.03494057 </v>
   <v>      -0.00000000       0.00000000       0.37501612 </v>
   <v>       0.00000000       0.00000000      -0.04869306 </v>
   <v>      -0.00371212      -0.00789639       0.12262257 </v>
   <v>      -0.00498241       0.00716299       0.12262257 </v>
   <v>       0.00869454       0.00073340       0.12262257 </v>
   <v>      -0.26803995       0.00798892      -0.25335823 </v>
   <v>       0.14093857       0.22813493      -0.25335823 </v>
   <v>       0.12710138      -0.23612385      -0.25335823 </v>
  </varray>
  <varray name="stress" >
   <v>       3.87017353      -0.00000081       0.00000000 </v>
   <v>       0.00000019       3.87017308       0.00000000 </v>
   <v>       0.00000000       0.00000000       2.12005980 </v>
  </varray>
  <energy>
   <i name="e_fr_energy">    -43.72106642 </i>
   <i name="e_wo_entrp">    -43.72106642 </i>
   <i name="e_0_energy">      0.00000000 </i>
  </energy>
  <time name="totalsc"> 1178.12 1183.22</time>
 </calculation>
 <calculation>
  <scstep>
   <time name="dav">   28.74   29.00</time>
   <time name="total">   83.14   83.55</time>
   <energy>
    <i name="alphaZ">     11.90809148 </i>
    <i name="ewald">   6359.84770613 </i>
    <i name="hartreedc">  -8305.90232080 </i>
    <i name="XCdc">   -218.00655280 </i>
    <i name="pawpsdc">   1247.41612118 </i>
    <i name="pawaedc">   -940.01003966 </i>
    <i name="eentropy">      0.00000000 </i>
    <i name="bandstr">   -381.86680143 </i>
    <i name="atom">   2182.86754148 </i>
    <i name="e_fr_energy">    -43.74625442 </i>
    <i name="e_wo_entrp">    -43.74625442 </i>
    <i name="e_0_energy">    -43.74625442 </i>
   </energy>
  </scstep>
  <scstep>
   <time name="dav">   29.39   29.96</time>
   <time name="total">   83.32   84.76</time>
   <energy>
    <i name="e_fr_energy">    -43.74517833 </i>
    <i name="e_wo_entrp">    -43.74517833 </i>
    <i name="e_0_energy">    -43.74517833 </i>
   </energy>
  </scstep>
  <scstep>
   <time name="dav">   32.57   32.81</time>
   <time name="total">   85.99   86.58</time>
   <energy>
    <i name="e_fr_energy">    -43.73364958 </i>
    <i name="e_wo_entrp">    -43.73364958 </i>
    <i name="e_0_energy">    -43.73364958 </i>
   </energy>
  </scstep>
  <scstep>
   <time name="dav">   29.86   30.35</time>
   <time name="total">   83.24   83.80</time>
   <energy>
    <i name="e_fr_energy">    -43.72935939 </i>
    <i name="e_wo_entrp">    -43.72935939 </i>
    <i name="e_0_energy">    -43.72935939 </i>
   </energy>
  </scstep>
  <scstep>
   <time name="dav">   28.37   28.44</time>
   <time name="total">   81.51   81.67</time>
   <energy>
    <i name="e_fr_energy">    -43.72912097 </i>
    <i name="e_wo_entrp">    -43.72912097 </i>
    <i name="e_0_energy">    -43.72912097 </i>
   </energy>
  </scstep>
  <scstep>
   <time name="dav">   19.95   19.98</time>
   <time name="total">   71.13   71.18</time>
   <energy>
    <i name="alphaZ">     11.90809148 </i>
    <i name="ewald">   6359.84770613 </i>
    <i name="hartreedc">  -8309.48771398 </i>
    <i name="XCdc">   -217.91462842 </i>
    <i name="pawpsdc">   1243.46459103 </i>
    <i name="pawaedc">   -936.01326794 </i>
    <i name="eentropy">      0.00000000 </i>
    <i name="bandstr">   -378.40136857 </i>
    <i name="atom">   2182.86754148 </i>
    <i name="e_fr_energy">    -43.72904880 </i>
    <i name="e_wo_entrp">    -43.72904880 </i>
    <i name="e_0_energy">    -43.72904880 </i>
   </energy>
  </scstep>
  <structure>
   <crystal>
    <varray name="basis" >
     <v>       6.78950433      -0.00000001      -0.00000000 </v>
     <v>       3.39475170       5.87988288      -0.00000000 </v>
     <v>      -0.00000000       0.00000000      23.03797129 </v>
    </varray>
    <i name="volume">    919.71014748 </i>
    <varray name="rec_basis" >
     <v>       0.14728616      -0.08503570       0.00000000 </v>
     <v>       0.00000000       0.17007141      -0.00000000 </v>
     <v>       0.00000000      -0.00000000       0.04340660 </v>
    </varray>
   </crystal>
   <varray name="positions" >
    <v>       0.33333300       0.33333300       0.50019095 </v>
    <v>       0.66666700       0.66666700       0.50034806 </v>
    <v>      -0.00000000       0.00000000       0.44991530 </v>
    <v>       0.00000000      -0.00000000       0.55058004 </v>
    <v>       0.62676192       0.00037383       0.57318835 </v>
    <v>       0.00037383       0.37286524       0.57318835 </v>
    <v>       0.37286524       0.62676192       0.57318835 </v>
    <v>       0.37081864       0.99963541       0.42646687 </v>
    <v>       0.99963541       0.62954495       0.42646687 </v>
    <v>       0.62954495       0.37081864       0.42646687 </v>
   </varray>
  </structure>
  <varray name="forces" >
   <v>       0.00000000       0.00000000       0.05972603 </v>
   <v>       0.00000000       0.00000000       0.06394026 </v>
   <v>       0.00000000       0.00000000       0.51141363 </v>
   <v>       0.00000000       0.00000000      -0.19333255 </v>
   <v>       0.00906004      -0.00698921       0.03846567 </v>
   <v>      -0.01058286      -0.00435162       0.03846567 </v>
   <v>       0.00152281       0.01134083       0.03846567 </v>
   <v>      -0.31366297       0.00883892      -0.18571480 </v>
   <v>       0.16448619       0.26722062      -0.18571480 </v>
   <v>       0.14917677      -0.27605954      -0.18571480 </v>
  </varray>
  <varray name="stress" >
   <v>       1.85172412      -0.00000054      -0.00000000 </v>
   <v>       0.00000024       1.85172390      -0.00000000 </v>
   <v>      -0.00000000      -0.00000000       0.66843867 </v>
  </varray>
  <energy>
   <i name="e_fr_energy">    -43.72904880 </i>
   <i name="e_wo_entrp">    -43.72904880 </i>
   <i name="e_0_energy">      0.00000000 </i>
  </energy>
  <time name="totalsc">  622.80  626.23</time>
 </calculation>
 <calculation>
  <scstep>
   <time name="dav">   22.90   23.02</time>
   <time name="total">   75.96   76.19</time>
   <energy>
    <i name="alphaZ">     11.85749970 </i>
    <i name="ewald">   6313.45768802 </i>
    <i name="hartreedc">  -8262.37521476 </i>
    <i name="XCdc">   -217.98807503 </i>
    <i name="pawpsdc">   1243.10534847 </i>
    <i name="pawaedc">   -935.63966827 </i>
    <i name="eentropy">      0.00000000 </i>
    <i name="bandstr">   -379.04131562 </i>
    <i name="atom">   2182.86754148 </i>
    <i name="e_fr_energy">    -43.75619601 </i>
    <i name="e_wo_entrp">    -43.75619601 </i>
    <i name="e_0_energy">    -43.75619601 </i>
   </energy>
  </scstep>
  <scstep>
   <time name="dav">   27.11   27.40</time>
   <time name="total">   79.11   80.78</time>
   <energy>
    <i name="e_fr_energy">    -43.76074291 </i>
    <i name="e_wo_entrp">    -43.76074291 </i>
    <i name="e_0_energy">    -43.76074291 </i>
   </energy>
  </scstep>
  <scstep>
   <time name="dav">   29.71   29.91</time>
   <time name="total">   82.46   83.13</time>
   <energy>
    <i name="e_fr_energy">    -43.76038873 </i>
    <i name="e_wo_entrp">    -43.76038873 </i>
    <i name="e_0_energy">    -43.76038873 </i>
   </energy>
  </scstep>
  <scstep>
   <time name="dav">   31.41   31.57</time>
   <time name="total">   84.35   84.72</time>
   <energy>
    <i name="e_fr_energy">    -43.76006415 </i>
    <i name="e_wo_entrp">    -43.76006415 </i>
    <i name="e_0_energy">    -43.76006415 </i>
   </energy>
  </scstep>
  <scstep>
   <time name="dav">   29.70   29.98</time>
   <time name="total">   82.67   83.20</time>
   <energy>
    <i name="e_fr_energy">    -43.75975447 </i>
    <i name="e_wo_entrp">    -43.75975447 </i>
    <i name="e_0_energy">    -43.75975447 </i>
   </energy>
  </scstep>
  <scstep>
   <time name="dav">   25.61   25.83</time>
   <time name="total">   76.50   77.04</time>
   <energy>
    <i name="alphaZ">     11.85749970 </i>
    <i name="ewald">   6313.45768802 </i>
    <i name="hartreedc">  -8263.13427013 </i>
    <i name="XCdc">   -217.92109835 </i>
    <i name="pawpsdc">   1240.39753856 </i>
    <i name="pawaedc">   -932.89898737 </i>
    <i name="eentropy">      0.00000000 </i>
    <i name="bandstr">   -378.38570544 </i>
    <i name="atom">   2182.86754148 </i>
    <i name="e_fr_energy">    -43.75979353 </i>
    <i name="e_wo_entrp">    -43.75979353 </i>
    <i name="e_0_energy">    -43.75979353 </i>
   </energy>
  </scstep>
  <structure>
   <crystal>
    <varray name="basis" >
     <v>       6.80639372      -0.00000002      -0.00000000 </v>
     <v>       3.40319640       5.89450951      -0.00000000 </v>
     <v>      -0.00000000      -0.00000000      23.02158802 </v>
    </varray>
    <i name="volume">    923.63422726 </i>
    <varray name="rec_basis" >
     <v>       0.14692068      -0.08482469       0.00000000 </v>
     <v>       0.00000000       0.16964940       0.00000000 </v>
     <v>       0.00000000       0.00000000       0.04343749 </v>
    </varray>
   </crystal>
   <varray name="positions" >
    <v>       0.33333300       0.33333300       0.50035100 </v>
    <v>       0.66666700       0.66666700       0.50051768 </v>
    <v>      -0.00000000       0.00000000       0.45120057 </v>
    <v>      -0.00000000       0.00000000       0.55001143 </v>
    <v>       0.62691148       0.00031162       0.57318315 </v>
    <v>       0.00031162       0.37277790       0.57318315 </v>
    <v>       0.37277790       0.62691148       0.57318315 </v>
    <v>       0.36821383       0.99971366       0.42612329 </v>
    <v>       0.99971366       0.63207151       0.42612329 </v>
    <v>       0.63207151       0.36821383       0.42612329 </v>
   </varray>
  </structure>
  <varray name="forces" >
   <v>       0.00000000      -0.00000000      -0.02855589 </v>
   <v>       0.00000000      -0.00000000      -0.03277416 </v>
   <v>       0.00000000      -0.00000000       0.11841514 </v>
   <v>       0.00000000      -0.00000000       0.21772774 </v>
   <v>       0.01459250      -0.00481020       0.00128475 </v>
   <v>      -0.01146200      -0.01023238       0.00128475 </v>
   <v>      -0.00313050       0.01504257       0.00128475 </v>
   <v>      -0.25731129       0.00485710      -0.09288903 </v>
   <v>       0.13286199       0.22040955      -0.09288903 </v>
   <v>       0.12444929      -0.22526665      -0.09288903 </v>
  </varray>
  <varray name="stress" >
   <v>       0.88324100      -0.00000079      -0.00000000 </v>
   <v>       0.00000065       0.88324089      -0.00000000 </v>
   <v>       0.00000000      -0.00000000       1.14118342 </v>
  </varray>
  <energy>
   <i name="e_fr_energy">    -43.75979353 </i>
   <i name="e_wo_entrp">    -43.75979353 </i>
   <i name="e_0_energy">      0.00000000 </i>
  </energy>
  <time name="totalsc">  613.80  618.45</time>
 </calculation>
 <calculation>
  <scstep>
   <time name="dav">   22.88   23.02</time>
   <time name="total">   75.96   76.32</time>
   <energy>
    <i name="alphaZ">     11.82206685 </i>
    <i name="ewald">   6280.99006350 </i>
    <i name="hartreedc">  -8230.06321224 </i>
    <i name="XCdc">   -217.97219890 </i>
    <i name="pawpsdc">   1240.33877839 </i>
    <i name="pawaedc">   -932.84100672 </i>
    <i name="eentropy">      0.00000000 </i>
    <i name="bandstr">   -378.90540304 </i>
    <i name="atom">   2182.86754148 </i>
    <i name="e_fr_energy">    -43.76337067 </i>
    <i name="e_wo_entrp">    -43.76337067 </i>
    <i name="e_0_energy">    -43.76337067 </i>
   </energy>
  </scstep>
  <scstep>
   <time name="dav">   25.53   25.96</time>
   <time name="total">   78.10   79.03</time>
   <energy>
    <i name="e_fr_energy">    -43.76570611 </i>
    <i name="e_wo_entrp">    -43.76570611 </i>
    <i name="e_0_energy">    -43.76570611 </i>
   </energy>
  </scstep>
  <scstep>
   <time name="dav">   29.21   29.58</time>
   <time name="total">   81.80   82.70</time>
   <energy>
    <i name="e_fr_energy">    -43.76547546 </i>
    <i name="e_wo_entrp">    -43.76547546 </i>
    <i name="e_0_energy">    -43.76547546 </i>
   </energy>
  </scstep>
  <scstep>
   <time name="dav">   27.02   27.24</time>
   <time name="total">   79.96   80.37</time>
   <energy>
    <i name="e_fr_energy">    -43.76534124 </i>
    <i name="e_wo_entrp">    -43.76534124 </i>
    <i name="e_0_energy">    -43.76534124 </i>
   </energy>
  </scstep>
  <scstep>
   <time name="dav">   29.58   29.62</time>
   <time name="total">   80.70   80.76</time>
   <energy>
    <i name="alphaZ">     11.82206685 </i>
    <i name="ewald">   6280.99006350 </i>
    <i name="hartreedc">  -8230.42850091 </i>
    <i name="XCdc">   -217.92787505 </i>
    <i name="pawpsdc">   1238.58793115 </i>
    <i name="pawaedc">   -931.06994813 </i>
    <i name="eentropy">      0.00000000 </i>
    <i name="bandstr">   -378.60653844 </i>
    <i name="atom">   2182.86754148 </i>
    <i name="e_fr_energy">    -43.76525955 </i>
    <i name="e_wo_entrp">    -43.76525955 </i>
    <i name="e_0_energy">    -43.76525955 </i>
   </energy>
  </scstep>
  <structure>
   <crystal>
    <varray name="basis" >
     <v>       6.81829602      -0.00000003      -0.00000000 </v>
     <v>       3.40914756       5.90481720      -0.00000000 </v>
     <v>      -0.00000000      -0.00000000      23.01004239 </v>
    </varray>
    <i name="volume">    926.40252464 </i>
    <varray name="rec_basis" >
     <v>       0.14666421      -0.08467661       0.00000000 </v>
     <v>       0.00000000       0.16935325       0.00000000 </v>
     <v>       0.00000000       0.00000000       0.04345929 </v>
    </varray>
   </crystal>
   <varray name="positions" >
    <v>       0.33333300       0.33333300       0.50046387 </v>
    <v>       0.66666700       0.66666700       0.50063730 </v>
    <v>      -0.00000000       0.00000000       0.45210696 </v>
    <v>      -0.00000000       0.00000000       0.54961044 </v>
    <v>       0.62701662       0.00026788       0.57317949 </v>
    <v>       0.00026788       0.37271650       0.57317949 </v>
    <v>       0.37271650       0.62701662       0.57317949 </v>
    <v>       0.36638273       0.99976866       0.42588099 </v>
    <v>       0.99976866       0.63384761       0.42588099 </v>
    <v>       0.63384761       0.36638273       0.42588099 </v>
   </varray>
  </structure>
  <varray name="forces" >
   <v>      -0.00000000       0.00000000      -0.08824450 </v>
   <v>      -0.00000000       0.00000000      -0.09669385 </v>
   <v>      -0.00000000       0.00000000      -0.20395112 </v>
   <v>      -0.00000000      -0.00000000       0.54434585 </v>
   <v>       0.02070219      -0.00336299      -0.02097200 </v>
   <v>      -0.01326353      -0.01624713      -0.02097200 </v>
   <v>      -0.00743867       0.01961012      -0.02097200 </v>
   <v>      -0.22276066      -0.00018981      -0.03084679 </v>
   <v>       0.11121594       0.19301128      -0.03084679 </v>
   <v>       0.11154472      -0.19282148      -0.03084679 </v>
  </varray>
  <varray name="stress" >
   <v>      -0.00607442      -0.00000048      -0.00000000 </v>
   <v>       0.00000049      -0.00607442       0.00000000 </v>
   <v>       0.00000000       0.00000000       1.46549192 </v>
  </varray>
  <energy>
   <i name="e_fr_energy">    -43.76525955 </i>
   <i name="e_wo_entrp">    -43.76525955 </i>
   <i name="e_0_energy">      0.00000000 </i>
  </energy>
  <time name="totalsc">  529.52  532.43</time>
 </calculation>
 <calculation>
  <scstep>
   <time name="dav">   25.27   25.30</time>
   <time name="total">   78.50   78.62</time>
   <energy>
    <i name="alphaZ">     11.73667244 </i>
    <i name="ewald">   6284.50449276 </i>
    <i name="hartreedc">  -8227.51612020 </i>
    <i name="XCdc">   -218.09989631 </i>
    <i name="pawpsdc">   1238.50000694 </i>
    <i name="pawaedc">   -930.97810838 </i>
    <i name="eentropy">      0.00000000 </i>
    <i name="bandstr">   -384.80377926 </i>
    <i name="atom">   2182.86754148 </i>
    <i name="e_fr_energy">    -43.78919052 </i>
    <i name="e_wo_entrp">    -43.78919052 </i>
    <i name="e_0_energy">    -43.78919052 </i>
   </energy>
  </scstep>
  <scstep>
   <time name="dav">   28.37   28.55</time>
   <time name="total">   81.31   81.87</time>
   <energy>
    <i name="e_fr_energy">    -43.79055970 </i>
    <i name="e_wo_entrp">    -43.79055970 </i>
    <i name="e_0_energy">    -43.79055970 </i>
   </energy>
  </scstep>
  <scstep>
   <time name="dav">   30.72   30.90</time>
   <time name="total">   83.92   84.33</time>
   <energy>
    <i name="e_fr_energy">    -43.78862381 </i>
    <i name="e_wo_entrp">    -43.78862381 </i>
    <i name="e_0_energy">    -43.78862381 </i>
   </energy>
  </scstep>
  <scstep>
   <time name="dav">   30.07   30.26</time>
   <time name="total">   83.08   83.69</time>
   <energy>
    <i name="e_fr_energy">    -43.78555237 </i>
    <i name="e_wo_entrp">    -43.78555237 </i>
    <i name="e_0_energy">    -43.78555237 </i>
   </energy>
  </scstep>
  <scstep>
   <time name="dav">   31.32   31.56</time>
   <time name="total">   84.24   84.95</time>
   <energy>
    <i name="e_fr_energy">    -43.78534176 </i>
    <i name="e_wo_entrp">    -43.78534176 </i>
    <i name="e_0_energy">    -43.78534176 </i>
   </energy>
  </scstep>
  <scstep>
   <time name="dav">   27.90   28.08</time>
   <time name="total">   81.00   81.44</time>
   <energy>
    <i name="e_fr_energy">    -43.78518363 </i>
    <i name="e_wo_entrp">    -43.78518363 </i>
    <i name="e_0_energy">    -43.78518363 </i>
   </energy>
  </scstep>
  <scstep>
   <time name="dav">   19.37   19.42</time>
   <time name="total">   70.55   70.67</time>
   <energy>
    <i name="alphaZ">     11.73667244 </i>
    <i name="ewald">   6284.50449276 </i>
    <i name="hartreedc">  -8230.71987000 </i>
    <i name="XCdc">   -217.99826074 </i>
    <i name="pawpsdc">   1235.32550513 </i>
    <i name="pawaedc">   -927.78093708 </i>
    <i name="eentropy">      0.00000000 </i>
    <i name="bandstr">   -381.72029380 </i>
    <i name="atom">   2182.86754148 </i>
    <i name="e_fr_energy">    -43.78514981 </i>
    <i name="e_wo_entrp">    -43.78514981 </i>
    <i name="e_0_energy">    -43.78514981 </i>
   </energy>
  </scstep>
  <structure>
   <crystal>
    <varray name="basis" >
     <v>       6.82926782      -0.00000005      -0.00000000 </v>
     <v>       3.41463347       5.91431905      -0.00000000 </v>
     <v>      -0.00000000      -0.00000000      23.10304700 </v>
    </varray>
    <i name="volume">    933.14290130 </i>
    <varray name="rec_basis" >
     <v>       0.14642858      -0.08454058       0.00000000 </v>
     <v>       0.00000000       0.16908117       0.00000000 </v>
     <v>       0.00000000       0.00000000       0.04328433 </v>
    </varray>
   </crystal>
   <varray name="positions" >
    <v>       0.33333300       0.33333300       0.50036474 </v>
    <v>       0.66666700       0.66666700       0.50052491 </v>
    <v>      -0.00000000       0.00000000       0.45247759 </v>
    <v>      -0.00000000       0.00000000       0.55049624 </v>
    <v>       0.62729072       0.00019704       0.57312760 </v>
    <v>       0.00019704       0.37251323       0.57312760 </v>
    <v>       0.37251323       0.62729072       0.57312760 </v>
    <v>       0.36294839       0.99981794       0.42558458 </v>
    <v>       0.99981794       0.63723267       0.42558458 </v>
    <v>       0.63723267       0.36294839       0.42558458 </v>
   </varray>
  </structure>
  <varray name="forces" >
   <v>       0.00000000       0.00000000      -0.13092522 </v>
   <v>       0.00000000       0.00000000      -0.14478721 </v>
   <v>      -0.00000000       0.00000000       0.04970676 </v>
   <v>      -0.00000000       0.00000000       0.29202267 </v>
   <v>      -0.03713599      -0.00157094      -0.06394201 </v>
   <v>       0.01720752       0.03294618      -0.06394201 </v>
   <v>       0.01992847      -0.03137524      -0.06394201 </v>
   <v>      -0.07152485       0.00025877       0.04193634 </v>
   <v>       0.03598652       0.06181295       0.04193634 </v>
   <v>       0.03553833      -0.06207172       0.04193634 </v>
  </varray>
  <varray name="stress" >
   <v>      -0.56616086      -0.00000013      -0.00000000 </v>
   <v>       0.00000022      -0.56616079       0.00000000 </v>
   <v>      -0.00000000       0.00000000      -0.17025332 </v>
  </varray>
  <energy>
   <i name="e_fr_energy">    -43.78514981 </i>
   <i name="e_wo_entrp">    -43.78514981 </i>
   <i name="e_0_energy">      0.00000000 </i>
  </energy>
  <time name="totalsc">  695.68  698.89</time>
 </calculation>
 <calculation>
  <scstep>
   <time name="dav">   23.56   23.72</time>
   <time name="total">   76.74   77.05</time>
   <energy>
    <i name="alphaZ">     11.69486943 </i>
    <i name="ewald">   6286.21321718 </i>
    <i name="hartreedc">  -8229.50312427 </i>
    <i name="XCdc">   -218.07954915 </i>
    <i name="pawpsdc">   1234.86915313 </i>
    <i name="pawaedc">   -927.30681233 </i>
    <i name="eentropy">      0.00000000 </i>
    <i name="bandstr">   -384.54415821 </i>
    <i name="atom">   2182.86754148 </i>
    <i name="e_fr_energy">    -43.78886274 </i>
    <i name="e_wo_entrp">    -43.78886274 </i>
    <i name="e_0_energy">    -43.78886274 </i>
   </energy>
  </scstep>
  <scstep>
   <time name="dav">   27.50   27.61</time>
   <time name="total">   80.54   80.75</time>
   <energy>
    <i name="e_fr_energy">    -43.78899801 </i>
    <i name="e_wo_entrp">    -43.78899801 </i>
    <i name="e_0_energy">    -43.78899801 </i>
   </energy>
  </scstep>
  <scstep>
   <time name="dav">   29.03   29.13</time>
   <time name="total">   82.04   82.54</time>
   <energy>
    <i name="e_fr_energy">    -43.78861706 </i>
    <i name="e_wo_entrp">    -43.78861706 </i>
    <i name="e_0_energy">    -43.78861706 </i>
   </energy>
  </scstep>
  <scstep>
   <time name="dav">   29.94   30.21</time>
   <time name="total">   82.90   83.46</time>
   <energy>
    <i name="e_fr_energy">    -43.78777184 </i>
    <i name="e_wo_entrp">    -43.78777184 </i>
    <i name="e_0_energy">    -43.78777184 </i>
   </energy>
  </scstep>
  <scstep>
   <time name="dav">   22.88   22.95</time>
   <time name="total">   74.00   74.12</time>
   <energy>
    <i name="alphaZ">     11.69486943 </i>
    <i name="ewald">   6286.21321718 </i>
    <i name="hartreedc">  -8231.28811936 </i>
    <i name="XCdc">   -218.02053735 </i>
    <i name="pawpsdc">   1233.63598376 </i>
    <i name="pawaedc">   -926.07959439 </i>
    <i name="eentropy">      0.00000000 </i>
    <i name="bandstr">   -382.81104672 </i>
    <i name="atom">   2182.86754148 </i>
    <i name="e_fr_energy">    -43.78768598 </i>
    <i name="e_wo_entrp">    -43.78768598 </i>
    <i name="e_0_energy">    -43.78768598 </i>
   </energy>
  </scstep>
  <structure>
   <crystal>
    <varray name="basis" >
     <v>       6.83467989      -0.00000005      -0.00000000 </v>
     <v>       3.41733951       5.91900603      -0.00000000 </v>
     <v>      -0.00000000      -0.00000000      23.14892350 </v>
    </varray>
    <i name="volume">    936.47839701 </i>
    <varray name="rec_basis" >
     <v>       0.14631263      -0.08447363       0.00000000 </v>
     <v>       0.00000000       0.16894728       0.00000000 </v>
     <v>       0.00000000       0.00000000       0.04319855 </v>
    </varray>
   </crystal>
   <varray name="positions" >
    <v>       0.33333300       0.33333300       0.50031603 </v>
    <v>       0.66666700       0.66666700       0.50046969 </v>
    <v>      -0.00000000       0.00000000       0.45265967 </v>
    <v>      -0.00000000       0.00000000       0.55093142 </v>
    <v>       0.62742571       0.00016216       0.57310211 </v>
    <v>       0.00016216       0.37241313       0.57310211 </v>
    <v>       0.37241313       0.62742571       0.57310211 </v>
    <v>       0.36125705       0.99984220       0.42543895 </v>
    <v>       0.99984220       0.63889974       0.42543895 </v>
    <v>       0.63889974       0.36125705       0.42543895 </v>
   </varray>
  </structure>
  <varray name="forces" >
   <v>       0.00000000       0.00000000      -0.15247461 </v>
   <v>       0.00000000       0.00000000      -0.16756077 </v>
   <v>       0.00000000       0.00000000       0.16579111 </v>
   <v>       0.00000000       0.00000000       0.17952135 </v>
   <v>      -0.06487304      -0.00031323      -0.08216178 </v>
   <v>       0.03216525       0.05633832      -0.08216178 </v>
   <v>       0.03270779      -0.05602508      -0.08216178 </v>
   <v>      -0.00126386       0.00074850       0.07373608 </v>
   <v>       0.00128015       0.00072028       0.07373608 </v>
   <v>      -0.00001629      -0.00146879       0.07373608 </v>
  </varray>
  <varray name="stress" >
   <v>      -0.76023610      -0.00000030       0.00000000 </v>
   <v>       0.00000043      -0.76023601       0.00000000 </v>
   <v>       0.00000000       0.00000000      -1.01442289 </v>
  </varray>
  <energy>
   <i name="e_fr_energy">    -43.78768598 </i>
   <i name="e_wo_entrp">    -43.78768598 </i>
   <i name="e_0_energy">      0.00000000 </i>
  </energy>
  <time name="totalsc">  529.27  531.40</time>
 </calculation>
 <calculation>
  <scstep>
   <time name="dav">   24.40   24.64</time>
   <time name="total">   77.78   78.03</time>
   <energy>
    <i name="alphaZ">     11.76493830 </i>
    <i name="ewald">   6304.76173376 </i>
    <i name="hartreedc">  -8253.62898009 </i>
    <i name="XCdc">   -217.84140740 </i>
    <i name="pawpsdc">   1233.41777023 </i>
    <i name="pawaedc">   -925.85127451 </i>
    <i name="eentropy">      0.00000000 </i>
    <i name="bandstr">   -379.28702763 </i>
    <i name="atom">   2182.86754148 </i>
    <i name="e_fr_energy">    -43.79670586 </i>
    <i name="e_wo_entrp">    -43.79670586 </i>
    <i name="e_0_energy">    -43.79670586 </i>
   </energy>
  </scstep>
  <scstep>
   <time name="dav">   29.54   30.15</time>
   <time name="total">   83.66   84.47</time>
   <energy>
    <i name="e_fr_energy">    -43.80237833 </i>
    <i name="e_wo_entrp">    -43.80237833 </i>
    <i name="e_0_energy">    -43.80237833 </i>
   </energy>
  </scstep>
  <scstep>
   <time name="dav">   29.05   29.34</time>
   <time name="total">   82.48   82.99</time>
   <energy>
    <i name="e_fr_energy">    -43.79987612 </i>
    <i name="e_wo_entrp">    -43.79987612 </i>
    <i name="e_0_energy">    -43.79987612 </i>
   </energy>
  </scstep>
  <scstep>
   <time name="dav">   28.38   28.44</time>
   <time name="total">   81.51   81.85</time>
   <energy>
    <i name="e_fr_energy">    -43.79823191 </i>
    <i name="e_wo_entrp">    -43.79823191 </i>
    <i name="e_0_energy">    -43.79823191 </i>
   </energy>
  </scstep>
  <scstep>
   <time name="dav">   29.62   30.46</time>
   <time name="total">   82.76   83.90</time>
   <energy>
    <i name="e_fr_energy">    -43.79809985 </i>
    <i name="e_wo_entrp">    -43.79809985 </i>
    <i name="e_0_energy">    -43.79809985 </i>
   </energy>
  </scstep>
  <scstep>
   <time name="dav">   22.12   22.16</time>
   <time name="total">   73.52   73.87</time>
   <energy>
    <i name="alphaZ">     11.76493830 </i>
    <i name="ewald">   6304.76173376 </i>
    <i name="hartreedc">  -8251.82472157 </i>
    <i name="XCdc">   -217.89335573 </i>
    <i name="pawpsdc">   1235.47544091 </i>
    <i name="pawaedc">   -927.92616134 </i>
    <i name="eentropy">      0.00000000 </i>
    <i name="bandstr">   -381.02345788 </i>
    <i name="atom">   2182.86754148 </i>
    <i name="e_fr_energy">    -43.79804206 </i>
    <i name="e_wo_entrp">    -43.79804206 </i>
    <i name="e_0_energy">    -43.79804206 </i>
   </energy>
  </scstep>
  <structure>
   <crystal>
    <varray name="basis" >
     <v>       6.82100811      -0.00000007      -0.00000000 </v>
     <v>       3.41050364       5.90716592      -0.00000000 </v>
     <v>      -0.00000000      -0.00000000      23.10339208 </v>
    </varray>
    <i name="volume">    930.90097815 </i>
    <varray name="rec_basis" >
     <v>       0.14660589      -0.08464295       0.00000000 </v>
     <v>       0.00000000       0.16928592       0.00000000 </v>
     <v>       0.00000000       0.00000000       0.04328369 </v>
    </varray>
   </crystal>
   <varray name="positions" >
    <v>       0.33333300       0.33333300       0.49989459 </v>
    <v>       0.66666700       0.66666700       0.50000528 </v>
    <v>      -0.00000000       0.00000000       0.45321475 </v>
    <v>      -0.00000000       0.00000000       0.55171097 </v>
    <v>       0.62697393       0.00013287       0.57287558 </v>
    <v>       0.00013287       0.37289420       0.57287558 </v>
    <v>       0.37289420       0.62697393       0.57287558 </v>
    <v>       0.35997265       0.99986781       0.42551589 </v>
    <v>       0.99986781       0.64015854       0.42551589 </v>
    <v>       0.64015854       0.35997265       0.42551589 </v>
   </varray>
  </structure>
  <varray name="forces" >
   <v>      -0.00000000       0.00000000      -0.11041391 </v>
   <v>      -0.00000000       0.00000000      -0.11953987 </v>
   <v>      -0.00000000       0.00000000       0.22004222 </v>
   <v>      -0.00000000       0.00000000       0.12637845 </v>
   <v>      -0.09633353       0.00210914      -0.03892679 </v>
   <v>       0.04999333       0.08237271      -0.03892679 </v>
   <v>       0.04634021      -0.08448185      -0.03892679 </v>
   <v>       0.05997539       0.00281473       0.00010450 </v>
   <v>      -0.02755006      -0.05334757       0.00010450 </v>
   <v>      -0.03242533       0.05053284       0.00010450 </v>
  </varray>
  <varray name="stress" >
   <v>       0.68432465      -0.00000001      -0.00000000 </v>
   <v>      -0.00000010       0.68432457      -0.00000000 </v>
   <v>       0.00000000      -0.00000000      -0.61919597 </v>
  </varray>
  <energy>
   <i name="e_fr_energy">    -43.79804206 </i>
   <i name="e_wo_entrp">    -43.79804206 </i>
   <i name="e_0_energy">      0.00000000 </i>
  </energy>
  <time name="totalsc">  614.46  618.26</time>
 </calculation>
 <calculation>
  <scstep>
   <time name="dav">   23.46   23.71</time>
   <time name="total">   76.68   77.01</time>
   <energy>
    <i name="alphaZ">     11.82762816 </i>
    <i name="ewald">   6321.19406504 </i>
    <i name="hartreedc">  -8271.50423567 </i>
    <i name="XCdc">   -217.73238101 </i>
    <i name="pawpsdc">   1235.58702954 </i>
    <i name="pawaedc">   -928.04257965 </i>
    <i name="eentropy">      0.00000000 </i>
    <i name="bandstr">   -377.99698538 </i>
    <i name="atom">   2182.86754148 </i>
    <i name="e_fr_energy">    -43.79991749 </i>
    <i name="e_wo_entrp">    -43.79991749 </i>
    <i name="e_0_energy">    -43.79991749 </i>
   </energy>
  </scstep>
  <scstep>
   <time name="dav">   28.00   28.22</time>
   <time name="total">   81.12   81.63</time>
   <energy>
    <i name="e_fr_energy">    -43.80411737 </i>
    <i name="e_wo_entrp">    -43.80411737 </i>
    <i name="e_0_energy">    -43.80411737 </i>
   </energy>
  </scstep>
  <scstep>
   <time name="dav">   29.66   30.00</time>
   <time name="total">   83.00   83.80</time>
   <energy>
    <i name="e_fr_energy">    -43.80204795 </i>
    <i name="e_wo_entrp">    -43.80204795 </i>
    <i name="e_0_energy">    -43.80204795 </i>
   </energy>
  </scstep>
  <scstep>
   <time name="dav">   29.59   29.88</time>
   <time name="total">   82.87   83.35</time>
   <energy>
    <i name="e_fr_energy">    -43.80071907 </i>
    <i name="e_wo_entrp">    -43.80071907 </i>
    <i name="e_0_energy">    -43.80071907 </i>
   </energy>
  </scstep>
  <scstep>
   <time name="dav">   29.15   29.44</time>
   <time name="total">   82.36   82.76</time>
   <energy>
    <i name="e_fr_energy">    -43.80041757 </i>
    <i name="e_wo_entrp">    -43.80041757 </i>
    <i name="e_0_energy">    -43.80041757 </i>
   </energy>
  </scstep>
  <scstep>
   <time name="dav">   23.20   23.51</time>
   <time name="total">   74.16   74.74</time>
   <energy>
    <i name="alphaZ">     11.82762816 </i>
    <i name="ewald">   6321.19406504 </i>
    <i name="hartreedc">  -8269.57446220 </i>
    <i name="XCdc">   -217.78386791 </i>
    <i name="pawpsdc">   1237.86321181 </i>
    <i name="pawaedc">   -930.34979598 </i>
    <i name="eentropy">      0.00000000 </i>
    <i name="bandstr">   -379.84475363 </i>
    <i name="atom">   2182.86754148 </i>
    <i name="e_fr_energy">    -43.80043323 </i>
    <i name="e_wo_entrp">    -43.80043323 </i>
    <i name="e_0_energy">    -43.80043323 </i>
   </energy>
  </scstep>
  <structure>
   <crystal>
    <varray name="basis" >
     <v>       6.80886782      -0.00000008      -0.00000000 </v>
     <v>       3.40443350       5.89665212      -0.00000000 </v>
     <v>      -0.00000000       0.00000000      23.06296102 </v>
    </varray>
    <i name="volume">    925.96693293 </i>
    <varray name="rec_basis" >
     <v>       0.14686729      -0.08479387       0.00000000 </v>
     <v>       0.00000000       0.16958775      -0.00000000 </v>
     <v>       0.00000000       0.00000000       0.04335957 </v>
    </varray>
   </crystal>
   <varray name="positions" >
    <v>       0.33333300       0.33333300       0.49951962 </v>
    <v>       0.66666700       0.66666700       0.49959208 </v>
    <v>      -0.00000000       0.00000000       0.45370863 </v>
    <v>      -0.00000000       0.00000000       0.55240457 </v>
    <v>       0.62657195       0.00010682       0.57267402 </v>
    <v>       0.00010682       0.37332224       0.57267402 </v>
    <v>       0.37332224       0.62657195       0.57267402 </v>
    <v>       0.35882984       0.99989060       0.42558434 </v>
    <v>       0.99989060       0.64127856       0.42558434 </v>
    <v>       0.64127856       0.35882984       0.42558434 </v>
   </varray>
  </structure>
  <varray name="forces" >
   <v>       0.00000000       0.00000000      -0.07144341 </v>
   <v>       0.00000000      -0.00000000      -0.07614977 </v>
   <v>       0.00000000       0.00000000       0.27393556 </v>
   <v>       0.00000000       0.00000000       0.07106134 </v>
   <v>      -0.12955476       0.00205759      -0.00155613 </v>
   <v>       0.06655929       0.11116891      -0.00155613 </v>
   <v>       0.06299546      -0.11322650      -0.00155613 </v>
   <v>       0.11755555       0.00413266      -0.06424511 </v>
   <v>      -0.05519878      -0.10387241      -0.06424511 </v>
   <v>      -0.06235677       0.09973975      -0.06424511 </v>
  </varray>
  <varray name="stress" >
   <v>       2.00901068      -0.00000040       0.00000000 </v>
   <v>       0.00000008       2.00901044       0.00000000 </v>
   <v>      -0.00000000      -0.00000000      -0.00199795 </v>
  </varray>
  <energy>
   <i name="e_fr_energy">    -43.80043323 </i>
   <i name="e_wo_entrp">    -43.80043323 </i>
   <i name="e_0_energy">      0.00000000 </i>
  </energy>
  <time name="totalsc">  611.52  617.09</time>
 </calculation>
 <calculation>
  <scstep>
   <time name="dav">   22.88   23.09</time>
   <time name="total">   76.18   76.73</time>
   <energy>
    <i name="alphaZ">     11.82376367 </i>
    <i name="ewald">   6305.45347495 </i>
    <i name="hartreedc">  -8254.54338689 </i>
    <i name="XCdc">   -217.78269345 </i>
    <i name="pawpsdc">   1238.08217573 </i>
    <i name="pawaedc">   -930.57791236 </i>
    <i name="eentropy">      0.00000000 </i>
    <i name="bandstr">   -379.12760850 </i>
    <i name="atom">   2182.86754148 </i>
    <i name="e_fr_energy">    -43.80464536 </i>
    <i name="e_wo_entrp">    -43.80464536 </i>
    <i name="e_0_energy">    -43.80464536 </i>
   </energy>
  </scstep>
  <scstep>
   <time name="dav">   25.20   25.24</time>
   <time name="total">   78.25   78.42</time>
   <energy>
    <i name="e_fr_energy">    -43.80543725 </i>
    <i name="e_wo_entrp">    -43.80543725 </i>
    <i name="e_0_energy">    -43.80543725 </i>
   </energy>
  </scstep>
  <scstep>
   <time name="dav">   26.15   26.28</time>
   <time name="total">   79.56   79.73</time>
   <energy>
    <i name="e_fr_energy">    -43.80565771 </i>
    <i name="e_wo_entrp">    -43.80565771 </i>
    <i name="e_0_energy">    -43.80565771 </i>
   </energy>
  </scstep>
  <scstep>
   <time name="dav">   25.18   25.45</time>
   <time name="total">   76.41   76.83</time>
   <energy>
    <i name="alphaZ">     11.82376367 </i>
    <i name="ewald">   6305.45347495 </i>
    <i name="hartreedc">  -8254.18767155 </i>
    <i name="XCdc">   -217.78517517 </i>
    <i name="pawpsdc">   1238.20943374 </i>
    <i name="pawaedc">   -930.70793307 </i>
    <i name="eentropy">      0.00000000 </i>
    <i name="bandstr">   -379.47908340 </i>
    <i name="atom">   2182.86754148 </i>
    <i name="e_fr_energy">    -43.80564935 </i>
    <i name="e_wo_entrp">    -43.80564935 </i>
    <i name="e_0_energy">    -43.80564935 </i>
   </energy>
  </scstep>
  <structure>
   <crystal>
    <varray name="basis" >
     <v>       6.81296650      -0.00000009      -0.00000000 </v>
     <v>       3.40648285       5.90020167      -0.00000000 </v>
     <v>      -0.00000000       0.00000000      23.04274888 </v>
    </varray>
    <i name="volume">    926.26957685 </i>
    <varray name="rec_basis" >
     <v>       0.14677894      -0.08474286       0.00000000 </v>
     <v>       0.00000000       0.16948573      -0.00000000 </v>
     <v>       0.00000000       0.00000000       0.04339760 </v>
    </varray>
   </crystal>
   <varray name="positions" >
    <v>       0.33333300       0.33333300       0.49929166 </v>
    <v>       0.66666700       0.66666700       0.49934231 </v>
    <v>      -0.00000000       0.00000000       0.45410907 </v>
    <v>      -0.00000000       0.00000000       0.55279221 </v>
    <v>       0.62612352       0.00009822       0.57257202 </v>
    <v>       0.00009822       0.37377926       0.57257202 </v>
    <v>       0.37377926       0.62612352       0.57257202 </v>
    <v>       0.35847366       0.99991104       0.42558291 </v>
    <v>       0.99991104       0.64161430       0.42558291 </v>
    <v>       0.64161430       0.35847366       0.42558291 </v>
   </varray>
  </structure>
  <varray name="forces" >
   <v>       0.00000000      -0.00000000      -0.04636789 </v>
   <v>       0.00000000      -0.00000000      -0.04698421 </v>
   <v>       0.00000000      -0.00000000       0.24904669 </v>
   <v>       0.00000000      -0.00000000       0.07747519 </v>
   <v>      -0.13055946      -0.00477022      -0.00284079 </v>
   <v>       0.06114859       0.11545291      -0.00284079 </v>
   <v>       0.06941087      -0.11068269      -0.00284079 </v>
   <v>       0.10803821      -0.00193465      -0.07488247 </v>
   <v>      -0.05569455      -0.09259651      -0.07488247 </v>
   <v>      -0.05234366       0.09453115      -0.07488247 </v>
  </varray>
  <varray name="stress" >
   <v>       2.11818960      -0.00000040       0.00000000 </v>
   <v>       0.00000006       2.11818935       0.00000000 </v>
   <v>       0.00000000       0.00000000       0.23379611 </v>
  </varray>
  <energy>
   <i name="e_fr_energy">    -43.80564935 </i>
   <i name="e_wo_entrp">    -43.80564935 </i>
   <i name="e_0_energy">      0.00000000 </i>
  </energy>
  <time name="totalsc">  442.87  445.12</time>
 </calculation>
 <calculation>
  <scstep>
   <time name="dav">   22.52   22.70</time>
   <time name="total">   75.75   76.09</time>
   <energy>
    <i name="alphaZ">     11.81228363 </i>
    <i name="ewald">   6258.15567352 </i>
    <i name="hartreedc">  -8209.10412821 </i>
    <i name="XCdc">   -217.78511187 </i>
    <i name="pawpsdc">   1238.29944071 </i>
    <i name="pawaedc">   -930.80402340 </i>
    <i name="eentropy">      0.00000000 </i>
    <i name="bandstr">   -377.24918011 </i>
    <i name="atom">   2182.86754148 </i>
    <i name="e_fr_energy">    -43.80750425 </i>
    <i name="e_wo_entrp">    -43.80750425 </i>
    <i name="e_0_energy">    -43.80750425 </i>
   </energy>
  </scstep>
  <scstep>
   <time name="dav">   23.67   23.75</time>
   <time name="total">   77.00   77.25</time>
   <energy>
    <i name="e_fr_energy">    -43.81641733 </i>
    <i name="e_wo_entrp">    -43.81641733 </i>
    <i name="e_0_energy">    -43.81641733 </i>
   </energy>
  </scstep>
  <scstep>
   <time name="dav">   28.67   28.84</time>
   <time name="total">   82.05   82.29</time>
   <energy>
    <i name="e_fr_energy">    -43.81793974 </i>
    <i name="e_wo_entrp">    -43.81793974 </i>
    <i name="e_0_energy">    -43.81793974 </i>
   </energy>
  </scstep>
  <scstep>
   <time name="dav">   30.16   30.35</time>
   <time name="total">   83.15   83.77</time>
   <energy>
    <i name="e_fr_energy">    -43.81762810 </i>
    <i name="e_wo_entrp">    -43.81762810 </i>
    <i name="e_0_energy">    -43.81762810 </i>
   </energy>
  </scstep>
  <scstep>
   <time name="dav">   28.69   28.85</time>
   <time name="total">   82.02   82.26</time>
   <energy>
    <i name="e_fr_energy">    -43.81711289 </i>
    <i name="e_wo_entrp">    -43.81711289 </i>
    <i name="e_0_energy">    -43.81711289 </i>
   </energy>
  </scstep>
  <scstep>
   <time name="dav">   24.21   24.43</time>
   <time name="total">   75.33   75.77</time>
   <energy>
    <i name="alphaZ">     11.81228363 </i>
    <i name="ewald">   6258.15567352 </i>
    <i name="hartreedc">  -8207.83502322 </i>
    <i name="XCdc">   -217.79678423 </i>
    <i name="pawpsdc">   1238.27748214 </i>
    <i name="pawaedc">   -930.78649581 </i>
    <i name="eentropy">      0.00000000 </i>
    <i name="bandstr">   -378.51175365 </i>
    <i name="atom">   2182.86754148 </i>
    <i name="e_fr_energy">    -43.81707614 </i>
    <i name="e_wo_entrp">    -43.81707614 </i>
    <i name="e_0_energy">    -43.81707614 </i>
   </energy>
  </scstep>
  <structure>
   <crystal>
    <varray name="basis" >
     <v>       6.82526254      -0.00000011      -0.00000000 </v>
     <v>       3.41263088       5.91085033      -0.00000000 </v>
     <v>      -0.00000000       0.00000000      22.98211248 </v>
    </varray>
    <i name="volume">    927.16979345 </i>
    <varray name="rec_basis" >
     <v>       0.14651451      -0.08459019       0.00000000 </v>
     <v>       0.00000000       0.16918039      -0.00000000 </v>
     <v>       0.00000000       0.00000000       0.04351210 </v>
    </varray>
   </crystal>
   <varray name="positions" >
    <v>       0.33333300       0.33333300       0.49860717 </v>
    <v>       0.66666700       0.66666700       0.49859234 </v>
    <v>      -0.00000000       0.00000000       0.45531142 </v>
    <v>      -0.00000000       0.00000000       0.55395614 </v>
    <v>       0.62477905       0.00007246       0.57226572 </v>
    <v>       0.00007246       0.37514949       0.57226572 </v>
    <v>       0.37514949       0.62477905       0.57226572 </v>
    <v>       0.35740578       0.99997232       0.42557858 </v>
    <v>       0.99997232       0.64262089       0.42557858 </v>
    <v>       0.64262089       0.35740578       0.42557858 </v>
   </varray>
  </structure>
  <varray name="forces" >
   <v>      -0.00000000       0.00000000       0.02701290 </v>
   <v>      -0.00000000      -0.00000000       0.03270800 </v>
   <v>      -0.00000000       0.00000000       0.15252215 </v>
   <v>      -0.00000000       0.00000000       0.12508065 </v>
   <v>      -0.12790906      -0.00518980      -0.00130711 </v>
   <v>       0.05946002       0.11336738      -0.00130711 </v>
   <v>       0.06844903      -0.10817759      -0.00130711 </v>
   <v>       0.07041407      -0.00209526      -0.11113412 </v>
   <v>      -0.03702158      -0.05993274      -0.11113412 </v>
   <v>      -0.03339249       0.06202800      -0.11113412 </v>
  </varray>
  <varray name="stress" >
   <v>       0.91013858      -0.00000053       0.00000000 </v>
   <v>       0.00000038       0.91013847      -0.00000000 </v>
   <v>       0.00000000      -0.00000000       0.06992792 </v>
  </varray>
  <energy>
   <i name="e_fr_energy">    -43.81707614 </i>
   <i name="e_wo_entrp">    -43.81707614 </i>
   <i name="e_0_energy">      0.00000000 </i>
  </energy>
  <time name="totalsc">  623.71  626.84</time>
 </calculation>
 <calculation>
  <scstep>
   <time name="dav">   22.64   22.77</time>
[...]
        <r>  0.0000  0.0006  0.0008  0.0004  0.0253  0.0509  0.0012  0.0140  0.0451 </r>
        <r>  0.0640  0.0019  0.0129  0.0006  0.0000  0.0000  0.0000  0.0000  0.0000 </r>
        <r>  0.0229  0.0004  0.0009  0.0001  0.0000  0.0000  0.0000  0.0000  0.0000 </r>
        <r>  0.0015  0.0016  0.0068  0.0308  0.0001  0.0001  0.0001  0.0007  0.0003 </r>
        <r>  0.0004  0.0193  0.0014  0.0064  0.0002  0.0005  0.0001  0.0002  0.0001 </r>
        <r>  0.0015  0.0180  0.0067  0.0144  0.0003  0.0008  0.0001  0.0000  0.0000 </r>
        <r>  0.0059  0.0022  0.0041  0.0237  0.0002  0.0000  0.0012  0.0000  0.0053 </r>
        <r>  0.0031  0.0205  0.0051  0.0068  0.0047  0.0001  0.0007  0.0000  0.0016 </r>
        <r>  0.0058  0.0121  0.0041  0.0138  0.0048  0.0000  0.0012  0.0000  0.0007 </r>
       </set>
       <set comment="band 30">
        <r>  0.0033  0.0001  0.0009  0.0016  0.2043  0.0067  0.0955  0.0248  0.0070 </r>
        <r>  0.0034  0.0012  0.0010  0.0004  0.0764  0.0287  0.1026  0.0025  0.1331 </r>
        <r>  0.0000  0.0032  0.0000  0.0094  0.0000  0.0000  0.0000  0.0000  0.0000 </r>
        <r>  0.0000  0.0054  0.0000  0.0159  0.0000  0.0000  0.0000  0.0000  0.0000 </r>
        <r>  0.0015  0.0001  0.0000  0.0128  0.0008  0.0010  0.0005  0.0000  0.0003 </r>
        <r>  0.0000  0.0013  0.0000  0.0041  0.0004  0.0002  0.0000  0.0007  0.0011 </r>
        <r>  0.0015  0.0105  0.0000  0.0025  0.0002  0.0001  0.0005  0.0009  0.0009 </r>
        <r>  0.0018  0.0052  0.0033  0.0028  0.0002  0.0003  0.0006  0.0002  0.0003 </r>
        <r>  0.0000  0.0000  0.0000  0.0001  0.0007  0.0004  0.0000  0.0011  0.0022 </r>
        <r>  0.0019  0.0012  0.0034  0.0070  0.0001  0.0001  0.0006  0.0003  0.0003 </r>
       </set>
       <set comment="band 31">
        <r>  0.0028  0.0001  0.0003  0.0010  0.0204  0.0029  0.2376  0.0032  0.0936 </r>
        <r>  0.0027  0.0006  0.0002  0.0006  0.0749  0.0060  0.2286  0.0005  0.0450 </r>
        <r>  0.0054  0.0088  0.0003  0.0029  0.0000  0.0000  0.0000  0.0000  0.0000 </r>
        <r>  0.0007  0.0113  0.0053  0.0038  0.0000  0.0000  0.0000  0.0000  0.0000 </r>
        <r>  0.0001  0.0013  0.0001  0.0004  0.0001  0.0010  0.0000  0.0001  0.0001 </r>
        <r>  0.0013  0.0094  0.0011  0.0031  0.0007  0.0001  0.0010  0.0000  0.0002 </r>
        <r>  0.0001  0.0002  0.0001  0.0015  0.0002  0.0000  0.0000  0.0011  0.0001 </r>
        <r>  0.0006  0.0013  0.0010  0.0025  0.0005  0.0006  0.0002  0.0006  0.0000 </r>
        <r>  0.0003  0.0041  0.0026  0.0014  0.0004  0.0003  0.0017  0.0001  0.0001 </r>
        <r>  0.0006  0.0006  0.0010  0.0029  0.0001  0.0009  0.0001  0.0003  0.0004 </r>
       </set>
       <set comment="band 32">
        <r>  0.0008  0.0009  0.0002  0.0001  0.0236  0.0280  0.0505  0.0039  0.3047 </r>
        <r>  0.0009  0.0001  0.0002  0.0009  0.2051  0.0077  0.0544  0.0243  0.1199 </r>
        <r>  0.0000  0.0014  0.0000  0.0043  0.0000  0.0000  0.0000  0.0000  0.0000 </r>
        <r>  0.0000  0.0008  0.0000  0.0026  0.0000  0.0000  0.0000  0.0000  0.0000 </r>
        <r>  0.0010  0.0037  0.0007  0.0017  0.0003  0.0000  0.0001  0.0001  0.0000 </r>
        <r>  0.0000  0.0001  0.0000  0.0002  0.0001  0.0005  0.0000  0.0016  0.0004 </r>
        <r>  0.0010  0.0007  0.0007  0.0046  0.0000  0.0000  0.0001  0.0000  0.0003 </r>
        <r>  0.0001  0.0004  0.0012  0.0011  0.0011  0.0004  0.0006  0.0000  0.0002 </r>
        <r>  0.0000  0.0012  0.0000  0.0035  0.0001  0.0000  0.0000  0.0001  0.0002 </r>
        <r>  0.0001  0.0010  0.0012  0.0005  0.0000  0.0000  0.0006  0.0003  0.0013 </r>
       </set>
       <set comment="band 33">
        <r>  0.0003  0.0001  0.0013  0.0001  0.0370  0.0954  0.1326  0.0452  0.0031 </r>
        <r>  0.0003  0.0002  0.0012  0.0001  0.0113  0.1089  0.1303  0.0346  0.0272 </r>
        <r>  0.0000  0.0006  0.0000  0.0019  0.0000  0.0000  0.0000  0.0000  0.0000 </r>
        <r>  0.0000  0.0035  0.0000  0.0101  0.0000  0.0000  0.0000  0.0000  0.0000 </r>
        <r>  0.0044  0.0000  0.0045  0.0180  0.0014  0.0003  0.0002  0.0004  0.0004 </r>
        <r>  0.0000  0.0008  0.0000  0.0027  0.0005  0.0003  0.0000  0.0008  0.0016 </r>
        <r>  0.0044  0.0134  0.0043  0.0048  0.0002  0.0001  0.0002  0.0007  0.0015 </r>
        <r>  0.0013  0.0013  0.0041  0.0072  0.0013  0.0001  0.0002  0.0002  0.0003 </r>
        <r>  0.0000  0.0008  0.0000  0.0024  0.0004  0.0000  0.0000  0.0000  0.0013 </r>
        <r>  0.0014  0.0040  0.0042  0.0047  0.0004  0.0001  0.0002  0.0002  0.0012 </r>
       </set>
       <set comment="band 34">
        <r>  0.0010  0.0002  0.0002  0.0001  0.0906  0.0227  0.0369  0.0910  0.0268 </r>
        <r>  0.0010  0.0002  0.0002  0.0002  0.0257  0.0799  0.0364  0.0324  0.0918 </r>
        <r>  0.0155  0.0021  0.0121  0.0007  0.0000  0.0000  0.0000  0.0000  0.0000 </r>
        <r>  0.0012  0.0038  0.0213  0.0014  0.0000  0.0000  0.0000  0.0000  0.0000 </r>
        <r>  0.0011  0.0013  0.0025  0.0004  0.0002  0.0003  0.0006  0.0010  0.0009 </r>
        <r>  0.0073  0.0060  0.0057  0.0020  0.0001  0.0003  0.0001  0.0001  0.0000 </r>
        <r>  0.0011  0.0010  0.0027  0.0007  0.0009  0.0005  0.0006  0.0008  0.0001 </r>
        <r>  0.0026  0.0004  0.0025  0.0079  0.0000  0.0002  0.0000  0.0043  0.0003 </r>
        <r>  0.0071  0.0032  0.0002  0.0011  0.0003  0.0017  0.0003  0.0006  0.0001 </r>
        <r>  0.0025  0.0043  0.0023  0.0038  0.0003  0.0029  0.0000  0.0017  0.0000 </r>
       </set>
       <set comment="band 35">
        <r>  0.0033  0.0001  0.0018  0.0009  0.0122  0.0096  0.0089  0.0412  0.0510 </r>
        <r>  0.0033  0.0005  0.0017  0.0004  0.0463  0.0163  0.0088  0.0354  0.0155 </r>
        <r>  0.0041  0.0115  0.0001  0.0038  0.0000  0.0000  0.0000  0.0000  0.0000 </r>
        <r>  0.0001  0.0423  0.0034  0.0141  0.0000  0.0000  0.0000  0.0000  0.0000 </r>
        <r>  0.0019  0.0024  0.0028  0.0185  0.0030  0.0005  0.0000  0.0007  0.0007 </r>
        <r>  0.0105  0.0575  0.0035  0.0190  0.0017  0.0020  0.0001  0.0006  0.0006 </r>
        <r>  0.0018  0.0100  0.0028  0.0107  0.0017  0.0006  0.0000  0.0007  0.0020 </r>
        <r>  0.0005  0.0003  0.0009  0.0032  0.0014  0.0006  0.0000  0.0006  0.0009 </r>
        <r>  0.0039  0.0267  0.0011  0.0090  0.0003  0.0026  0.0000  0.0009  0.0001 </r>
        <r>  0.0005  0.0028  0.0009  0.0006  0.0009  0.0001  0.0000  0.0011  0.0015 </r>
       </set>
       <set comment="band 36">
        <r>  0.0003  0.0002  0.0000  0.0001  0.0332  0.1390  0.0266  0.0734  0.0299 </r>
        <r>  0.0002  0.0002  0.0001  0.0003  0.0530  0.0750  0.0228  0.1729  0.0187 </r>
        <r>  0.0018  0.0002  0.0003  0.0001  0.0000  0.0000  0.0000  0.0000  0.0000 </r>
        <r>  0.0008  0.0007  0.0017  0.0003  0.0000  0.0000  0.0000  0.0000  0.0000 </r>
        <r>  0.0018  0.0084  0.0049  0.0021  0.0001  0.0020  0.0001  0.0003  0.0007 </r>
        <r>  0.0080  0.0136  0.0100  0.0037  0.0005  0.0003  0.0003  0.0001  0.0002 </r>
        <r>  0.0023  0.0011  0.0054  0.0110  0.0007  0.0008  0.0001  0.0016  0.0001 </r>
        <r>  0.0021  0.0084  0.0048  0.0022  0.0002  0.0019  0.0000  0.0001  0.0001 </r>
        <r>  0.0043  0.0093  0.0103  0.0042  0.0004  0.0001  0.0002  0.0001  0.0002 </r>
        <r>  0.0024  0.0070  0.0051  0.0020  0.0003  0.0009  0.0000  0.0010  0.0001 </r>
       </set>
       <set comment="band 37">
        <r>  0.0021  0.0009  0.0001  0.0007  0.0211  0.1302  0.0120  0.1132  0.0271 </r>
        <r>  0.0021  0.0010  0.0001  0.0004  0.0117  0.0150  0.0151  0.1903  0.0279 </r>
        <r>  0.0000  0.0017  0.0000  0.0048  0.0000  0.0000  0.0000  0.0000  0.0000 </r>
        <r>  0.0000  0.0026  0.0000  0.0076  0.0000  0.0000  0.0000  0.0000  0.0000 </r>
        <r>  0.0059  0.0258  0.0025  0.0096  0.0004  0.0009  0.0002  0.0004  0.0006 </r>
        <r>  0.0000  0.0030  0.0000  0.0115  0.0002  0.0008  0.0000  0.0026  0.0005 </r>
        <r>  0.0055  0.0135  0.0020  0.0202  0.0001  0.0003  0.0002  0.0009  0.0008 </r>
        <r>  0.0055  0.0105  0.0031  0.0014  0.0001  0.0001  0.0001  0.0002  0.0002 </r>
        <r>  0.0000  0.0062  0.0000  0.0151  0.0004  0.0012  0.0000  0.0033  0.0011 </r>
        <r>  0.0053  0.0015  0.0028  0.0120  0.0001  0.0003  0.0001  0.0001  0.0001 </r>
       </set>
       <set comment="band 38">
        <r>  0.0006  0.0002  0.0002  0.0002  0.0584  0.0765  0.0019  0.0426  0.0392 </r>
        <r>  0.0007  0.0000  0.0002  0.0004  0.0634  0.0805  0.0019  0.0440  0.0320 </r>
        <r>  0.0477  0.0007  0.0185  0.0002  0.0000  0.0000  0.0000  0.0000  0.0000 </r>
        <r>  0.0011  0.0003  0.0221  0.0001  0.0000  0.0000  0.0000  0.0000  0.0000 </r>
        <r>  0.0015  0.0002  0.0144  0.0042  0.0000  0.0002  0.0002  0.0004  0.0004 </r>
        <r>  0.0011  0.0054  0.0103  0.0020  0.0002  0.0002  0.0003  0.0001  0.0001 </r>
        <r>  0.0016  0.0032  0.0145  0.0006  0.0002  0.0005  0.0002  0.0000  0.0002 </r>
        <r>  0.0043  0.0014  0.0075  0.0321  0.0003  0.0002  0.0004  0.0007  0.0022 </r>
        <r>  0.0010  0.0225  0.0058  0.0073  0.0016  0.0002  0.0001  0.0001  0.0005 </r>
        <r>  0.0044  0.0197  0.0076  0.0144  0.0023  0.0009  0.0004  0.0000  0.0001 </r>
       </set>
       <set comment="band 39">
        <r>  0.0036  0.0008  0.0003  0.0004  0.0413  0.0391  0.0033  0.1104  0.0018 </r>
        <r>  0.0035  0.0010  0.0003  0.0003  0.0196  0.1244  0.0033  0.0182  0.0243 </r>
        <r>  0.0000  0.0014  0.0000  0.0043  0.0000  0.0000  0.0000  0.0000  0.0000 </r>
        <r>  0.0000  0.0079  0.0000  0.0240  0.0000  0.0000  0.0000  0.0000  0.0000 </r>
        <r>  0.0029  0.0312  0.0002  0.0376  0.0009  0.0014  0.0002  0.0009  0.0012 </r>
        <r>  0.0000  0.0099  0.0000  0.0291  0.0005  0.0002  0.0000  0.0005  0.0014 </r>
        <r>  0.0028  0.0646  0.0002  0.0050  0.0013  0.0018  0.0002  0.0005  0.0009 </r>
        <r>  0.0009  0.0230  0.0006  0.0031  0.0009  0.0023  0.0001  0.0008  0.0000 </r>
        <r>  0.0000  0.0020  0.0000  0.0066  0.0000  0.0000  0.0000  0.0001  0.0001 </r>
        <r>  0.0008  0.0120  0.0006  0.0137  0.0004  0.0016  0.0001  0.0015  0.0005 </r>
       </set>
       <set comment="band 40">
        <r>  0.0154  0.0006  0.0022  0.0000  0.0197  0.0045  0.0293  0.0056  0.0058 </r>
        <r>  0.0154  0.0001  0.0022  0.0006  0.0066  0.0020  0.0292  0.0082  0.0189 </r>
        <r>  0.0015  0.0592  0.0052  0.0197  0.0000  0.0000  0.0000  0.0000  0.0000 </r>
        <r>  0.0010  0.0282  0.0042  0.0093  0.0000  0.0000  0.0000  0.0000  0.0000 </r>
        <r>  0.0001  0.0030  0.0007  0.0007  0.0014  0.0013  0.0006  0.0001  0.0005 </r>
        <r>  0.0027  0.0096  0.0002  0.0032  0.0009  0.0027  0.0005  0.0009  0.0003 </r>
        <r>  0.0001  0.0003  0.0007  0.0034  0.0015  0.0004  0.0006  0.0011  0.0005 </r>
        <r>  0.0016  0.0029  0.0005  0.0036  0.0071  0.0013  0.0001  0.0003  0.0022 </r>
        <r>  0.0276  0.0186  0.0118  0.0062  0.0018  0.0031  0.0000  0.0010  0.0006 </r>
        <r>  0.0016  0.0014  0.0005  0.0052  0.0055  0.0005  0.0001  0.0011  0.0037 </r>
       </set>
       <set comment="band 41">
        <r>  0.0092  0.0016  0.0009  0.0002  0.0047  0.0219  0.0076  0.0117  0.0154 </r>
        <r>  0.0093  0.0008  0.0009  0.0010  0.0095  0.0105  0.0076  0.0229  0.0106 </r>
        <r>  0.0000  0.0196  0.0000  0.0591  0.0000  0.0000  0.0000  0.0000  0.0000 </r>
        <r>  0.0000  0.0066  0.0000  0.0198  0.0000  0.0000  0.0000  0.0000  0.0000 </r>
        <r>  0.0003  0.0027  0.0009  0.0058  0.0006  0.0009  0.0016  0.0020  0.0012 </r>
        <r>  0.0000  0.0018  0.0000  0.0055  0.0005  0.0005  0.0000  0.0016  0.0015 </r>
        <r>  0.0003  0.0074  0.0010  0.0011  0.0004  0.0018  0.0016  0.0010  0.0015 </r>
        <r>  0.0087  0.0106  0.0017  0.0356  0.0020  0.0002  0.0002  0.0028  0.0023 </r>
        <r>  0.0000  0.0053  0.0000  0.0157  0.0021  0.0001  0.0000  0.0004  0.0065 </r>
        <r>  0.0087  0.0455  0.0016  0.0006  0.0009  0.0028  0.0002  0.0003  0.0034 </r>
       </set>
       <set comment="band 42">
        <r>  0.0008  0.0032  0.0002  0.0031  0.0231  0.0058  0.0037  0.0116  0.0292 </r>
        <r>  0.0008  0.0045  0.0002  0.0017  0.0275  0.0081  0.0037  0.0090  0.0246 </r>
        <r>  0.0046  0.0045  0.0788  0.0014  0.0000  0.0000  0.0000  0.0000  0.0000 </r>
        <r>  0.0195  0.0015  0.0279  0.0005  0.0000  0.0000  0.0000  0.0000  0.0000 </r>
        <r>  0.0011  0.0003  0.0034  0.0006  0.0003  0.0007  0.0008  0.0032  0.0001 </r>
        <r>  0.0010  0.0010  0.0115  0.0003  0.0004  0.0006  0.0011  0.0002  0.0001 </r>
        <r>  0.0011  0.0006  0.0034  0.0003  0.0001  0.0038  0.0008  0.0001  0.0003 </r>
        <r>  0.0029  0.0006  0.0120  0.0002  0.0008  0.0001  0.0007  0.0033  0.0014 </r>
        <r>  0.0003  0.0083  0.0149  0.0028  0.0045  0.0009  0.0021  0.0003  0.0015 </r>
        <r>  0.0030  0.0001  0.0120  0.0007  0.0007  0.0030  0.0007  0.0005  0.0015 </r>
       </set>
       <set comment="band 43">
        <r>  0.0285  0.0012  0.0038  0.0020  0.0024  0.0012  0.0021  0.0050  0.0066 </r>
        <r>  0.0288  0.0028  0.0039  0.0003  0.0077  0.0051  0.0021  0.0011  0.0012 </r>
        <r>  0.0003  0.0018  0.0012  0.0006  0.0000  0.0000  0.0000  0.0000  0.0000 </r>
        <r>  0.0005  0.0056  0.0042  0.0019  0.0000  0.0000  0.0000  0.0000  0.0000 </r>
        <r>  0.0002  0.0027  0.0007  0.0031  0.0002  0.0032  0.0001  0.0004  0.0002 </r>
        <r>  0.0028  0.0026  0.0060  0.0009  0.0009  0.0001  0.0071  0.0000  0.0003 </r>
        <r>  0.0002  0.0008  0.0007  0.0050  0.0001  0.0019  0.0001  0.0016  0.0002 </r>
        <r>  0.0000  0.0031  0.0029  0.0019  0.0056  0.0088  0.0009  0.0009  0.0002 </r>
        <r>  0.0049  0.0050  0.0022  0.0016  0.0008  0.0069  0.0009  0.0023  0.0003 </r>
        <r>  0.0000  0.0003  0.0028  0.0047  0.0008  0.0051  0.0009  0.0045  0.0050 </r>
       </set>
       <set comment="band 44">
        <r>  0.0059  0.0019  0.0026  0.0021  0.0040  0.0021  0.0015  0.0016  0.0053 </r>
        <r>  0.0062  0.0034  0.0026  0.0007  0.0043  0.0020  0.0015  0.0017  0.0049 </r>
        <r>  0.0000  0.0019  0.0000  0.0054  0.0000  0.0000  0.0000  0.0000  0.0000 </r>
        <r>  0.0000  0.0006  0.0000  0.0018  0.0000  0.0000  0.0000  0.0000  0.0000 </r>
        <r>  0.0030  0.0010  0.0103  0.0021  0.0001  0.0009  0.0032  0.0005  0.0001 </r>
        <r>  0.0000  0.0007  0.0000  0.0021  0.0000  0.0008  0.0000  0.0024  0.0001 </r>
        <r>  0.0030  0.0030  0.0107  0.0001  0.0000  0.0000  0.0032  0.0013  0.0002 </r>
        <r>  0.0005  0.0013  0.0061  0.0049  0.0006  0.0014  0.0010  0.0024  0.0011 </r>
        <r>  0.0000  0.0008  0.0000  0.0028  0.0007  0.0012  0.0000  0.0035  0.0020 </r>
        <r>  0.0005  0.0048  0.0064  0.0016  0.0006  0.0005  0.0010  0.0031  0.0011 </r>
       </set>
       <set comment="band 45">
        <r>  0.0155  0.0011  0.0008  0.0055  0.0031  0.0043  0.0066  0.0009  0.0033 </r>
        <r>  0.0150  0.0024  0.0007  0.0041  0.0006  0.0028  0.0067  0.0023  0.0061 </r>
        <r>  0.0018  0.0057  0.0025  0.0020  0.0000  0.0000  0.0000  0.0000  0.0000 </r>
        <r>  0.0001  0.0008  0.0008  0.0003  0.0000  0.0000  0.0000  0.0000  0.0000 </r>
        <r>  0.0003  0.0011  0.0048  0.0005  0.0001  0.0037  0.0003  0.0003  0.0001 </r>
        <r>  0.0020  0.0025  0.0009  0.0008  0.0001  0.0001  0.0005  0.0000  0.0000 </r>
        <r>  0.0003  0.0007  0.0045  0.0008  0.0000  0.0020  0.0003  0.0020  0.0002 </r>
        <r>  0.0017  0.0009  0.0022  0.0022  0.0040  0.0050  0.0001  0.0021  0.0001 </r>
        <r>  0.0001  0.0045  0.0249  0.0015  0.0014  0.0005  0.0042  0.0001  0.0004 </r>
        <r>  0.0017  0.0018  0.0021  0.0011  0.0014  0.0017  0.0001  0.0056  0.0027 </r>
       </set>
       <set comment="band 46">
        <r>  0.0012  0.0008  0.0004  0.0003  0.0009  0.0000  0.0085  0.0002  0.0027 </r>
        <r>  0.0012  0.0001  0.0004  0.0009  0.0020  0.0001  0.0081  0.0000  0.0019 </r>
        <r>  0.0000  0.0010  0.0000  0.0027  0.0000  0.0000  0.0000  0.0000  0.0000 </r>
        <r>  0.0000  0.0005  0.0000  0.0014  0.0000  0.0000  0.0000  0.0000  0.0000 </r>
        <r>  0.0008  0.0004  0.0006  0.0015  0.0000  0.0002  0.0008  0.0004  0.0003 </r>
        <r>  0.0000  0.0004  0.0000  0.0011  0.0001  0.0000  0.0000  0.0001  0.0002 </r>
        <r>  0.0008  0.0009  0.0006  0.0008  0.0002  0.0002  0.0008  0.0004  0.0001 </r>
        <r>  0.0019  0.0016  0.0075  0.0033  0.0004  0.0002  0.0043  0.0004  0.0004 </r>
        <r>  0.0000  0.0004  0.0000  0.0012  0.0006  0.0005  0.0000  0.0014  0.0018 </r>
        <r>  0.0018  0.0048  0.0072  0.0001  0.0002  0.0002  0.0043  0.0004  0.0006 </r>
       </set>
       <set comment="band 47">
        <r>  0.0131  0.0030  0.0073  0.0016  0.0059  0.0009  0.0017  0.0010  0.0063 </r>
        <r>  0.0131  0.0021  0.0074  0.0026  0.0010  0.0016  0.0018  0.0004  0.0110 </r>
        <r>  0.0011  0.0087  0.0041  0.0030  0.0000  0.0000  0.0000  0.0000  0.0000 </r>
        <r>  0.0003  0.0012  0.0043  0.0004  0.0000  0.0000  0.0000  0.0000  0.0000 </r>
        <r>  0.0011  0.0006  0.0044  0.0004  0.0032  0.0092  0.0003  0.0000  0.0002 </r>
        <r>  0.0002  0.0024  0.0152  0.0008  0.0037  0.0057  0.0008  0.0019  0.0012 </r>
        <r>  0.0011  0.0002  0.0045  0.0009  0.0006  0.0023  0.0003  0.0070  0.0028 </r>
        <r>  0.0005  0.0025  0.0026  0.0011  0.0020  0.0014  0.0000  0.0003  0.0015 </r>
        <r>  0.0003  0.0017  0.0000  0.0005  0.0026  0.0029  0.0048  0.0010  0.0009 </r>
        <r>  0.0005  0.0005  0.0027  0.0031  0.0014  0.0009  0.0000  0.0008  0.0021 </r>
       </set>
       <set comment="band 48">
        <r>  0.0047  0.0002  0.0094  0.0005  0.0032  0.0017  0.0016  0.0001  0.0008 </r>
        <r>  0.0046  0.0004  0.0094  0.0003  0.0019  0.0008  0.0015  0.0010  0.0020 </r>
        <r>  0.0026  0.0039  0.0069  0.0013  0.0000  0.0000  0.0000  0.0000  0.0000 </r>
        <r>  0.0013  0.0013  0.0153  0.0004  0.0000  0.0000  0.0000  0.0000  0.0000 </r>
        <r>  0.0000  0.0005  0.0003  0.0007  0.0024  0.0020  0.0005  0.0002  0.0006 </r>
        <r>  0.0003  0.0001  0.0079  0.0000  0.0025  0.0019  0.0006  0.0006  0.0008 </r>
        <r>  0.0000  0.0004  0.0003  0.0007  0.0006  0.0004  0.0005  0.0019  0.0024 </r>
        <r>  0.0003  0.0005  0.0009  0.0010  0.0065  0.0009  0.0029  0.0018  0.0015 </r>
        <r>  0.0013  0.0002  0.0026  0.0001  0.0034  0.0020  0.0011  0.0006  0.0011 </r>
        <r>  0.0003  0.0006  0.0009  0.0009  0.0021  0.0006  0.0029  0.0021  0.0060 </r>
       </set>
      </set>
     </set>
    </set>
   </array>
  </projected>
 </calculation>
 <structure name="finalpos" >
  <crystal>
   <varray name="basis" >
    <v>       6.83493319      -0.00000024      -0.00000000 </v>
    <v>       3.41746632       5.91922531      -0.00000000 </v>
    <v>      -0.00000000       0.00000000      23.03050549 </v>
   </varray>
   <i name="volume">    931.75691422 </i>
   <varray name="rec_basis" >
    <v>       0.14630721      -0.08447050       0.00000000 </v>
    <v>       0.00000001       0.16894102      -0.00000000 </v>
    <v>       0.00000000       0.00000000       0.04342067 </v>
   </varray>
  </crystal>
  <varray name="positions" >
   <v>       0.33333300       0.33333300       0.49673341 </v>
   <v>       0.66666700       0.66666700       0.49664093 </v>
   <v>      -0.00000000       0.00000000       0.46051298 </v>
   <v>      -0.00000000       0.00000000       0.55924880 </v>
   <v>       0.61646252      -0.00014113       0.57086883 </v>
   <v>      -0.00014113       0.38367961       0.57086883 </v>
   <v>       0.38367961       0.61646252       0.57086883 </v>
   <v>       0.35257624       0.00020697       0.42475246 </v>
   <v>       0.00020697       0.64721579       0.42475246 </v>
   <v>       0.64721579       0.35257624       0.42475246 </v>
  </varray>
 </structure>
</modeling>
