unknown system                          
           1
     6.907777   -0.000000    0.000000
     3.453888    5.982310    0.000000
     0.000000    0.000000   23.444588
   Cr   Si   P    Te
   2   1   1   6
Direct configuration=     1
   0.33333300  0.33333300  0.49992500
   0.66666700  0.66666700  0.50007500
   0.00000000  0.00000000  0.44821600
   0.00000000  0.00000000  0.55178400
   0.62635700  0.00042000  0.57375200
   0.00042000  0.37322400  0.57375200
   0.37322400  0.62635700  0.57375200
   0.37364300  0.99958000  0.42624800
   0.99958000  0.62677600  0.42624800
   0.62677600  0.37364300  0.42624800
unknown system                          
           1
     6.765602   -0.000000   -0.000000
     3.382801    5.859183   -0.000000
    -0.000000    0.000000   22.955797
   Cr   Si   P    Te
   2   1   1   6
Direct configuration=     2
   0.33333300  0.33333300  0.50024608
   0.66666700  0.66666700  0.50040466
   0.00000000  0.00000000  0.45026754
  -0.00000000  0.00000000  0.55033047
   0.62684583  0.00036427  0.57307151
   0.00036427  0.37279090  0.57307151
   0.37279090  0.62684583  0.57307151
   0.37023338  0.99964690  0.42651223
   0.99964690  0.63011873  0.42651223
   0.63011873  0.37023338  0.42651223
unknown system                          
           1
     6.789504   -0.000000   -0.000000
     3.394752    5.879883   -0.000000
    -0.000000    0.000000   23.037971
   Cr   Si   P    Te
   2   1   1   6
Direct configuration=     3
   0.33333300  0.33333300  0.50019095
   0.66666700  0.66666700  0.50034806
  -0.00000000  0.00000000  0.44991530
   0.00000000 -0.00000000  0.55058004
   0.62676192  0.00037383  0.57318835
   0.00037383  0.37286524  0.57318835
   0.37286524  0.62676192  0.57318835
   0.37081864  0.99963541  0.42646687
   0.99963541  0.62954495  0.42646687
   0.62954495  0.37081864  0.42646687
unknown system                          
           1
     6.806394   -0.000000   -0.000000
     3.403196    5.894510   -0.000000
    -0.000000   -0.000000   23.021588
   Cr   Si   P    Te
   2   1   1   6
Direct configuration=     4
   0.33333300  0.33333300  0.50035100
   0.66666700  0.66666700  0.50051768
  -0.00000000  0.00000000  0.45120057
  -0.00000000  0.00000000  0.55001143
   0.62691148  0.00031162  0.57318315
   0.00031162  0.37277790  0.57318315
   0.37277790  0.62691148  0.57318315
   0.36821383  0.99971366  0.42612329
   0.99971366  0.63207151  0.42612329
   0.63207151  0.36821383  0.42612329
unknown system                          
           1
     6.818296   -0.000000   -0.000000
     3.409148    5.904817   -0.000000
    -0.000000   -0.000000   23.010042
   Cr   Si   P    Te
   2   1   1   6
Direct configuration=     5
   0.33333300  0.33333300  0.50046387
   0.66666700  0.66666700  0.50063730
  -0.00000000  0.00000000  0.45210696
  -0.00000000  0.00000000  0.54961044
   0.62701662  0.00026788  0.57317949
   0.00026788  0.37271650  0.57317949
   0.37271650  0.62701662  0.57317949
   0.36638273  0.99976866  0.42588099
   0.99976866  0.63384761  0.42588099
   0.63384761  0.36638273  0.42588099
unknown system                          
           1
     6.829268   -0.000000   -0.000000
     3.414633    5.914319   -0.000000
    -0.000000   -0.000000   23.103047
   Cr   Si   P    Te
   2   1   1   6
Direct configuration=     6
   0.33333300  0.33333300  0.50036474
   0.66666700  0.66666700  0.50052491
  -0.00000000  0.00000000  0.45247759
  -0.00000000  0.00000000  0.55049624
   0.62729072  0.00019704  0.57312760
   0.00019704  0.37251323  0.57312760
   0.37251323  0.62729072  0.57312760
   0.36294839  0.99981794  0.42558458
   0.99981794  0.63723267  0.42558458
   0.63723267  0.36294839  0.42558458
unknown system                          
           1
     6.834680   -0.000000   -0.000000
     3.417340    5.919006   -0.000000
    -0.000000   -0.000000   23.148924
   Cr   Si   P    Te
   2   1   1   6
Direct configuration=     7
   0.33333300  0.33333300  0.50031603
   0.66666700  0.66666700  0.50046969
  -0.00000000  0.00000000  0.45265967
  -0.00000000  0.00000000  0.55093142
   0.62742571  0.00016216  0.57310211
   0.00016216  0.37241313  0.57310211
   0.37241313  0.62742571  0.57310211
   0.36125705  0.99984220  0.42543895
   0.99984220  0.63889974  0.42543895
   0.63889974  0.36125705  0.42543895
unknown system                          
           1
     6.821008   -0.000000   -0.000000
     3.410504    5.907166   -0.000000
    -0.000000   -0.000000   23.103392
   Cr   Si   P    Te
   2   1   1   6
Direct configuration=     8
   0.33333300  0.33333300  0.49989459
   0.66666700  0.66666700  0.50000528
  -0.00000000  0.00000000  0.45321475
  -0.00000000  0.00000000  0.55171097
   0.62697393  0.00013287  0.57287558
   0.00013287  0.37289420  0.57287558
   0.37289420  0.62697393  0.57287558
   0.35997265  0.99986781  0.42551589
   0.99986781  0.64015854  0.42551589
   0.64015854  0.35997265  0.42551589
unknown system                          
           1
     6.808868   -0.000000   -0.000000
     3.404434    5.896652   -0.000000
    -0.000000    0.000000   23.062961
   Cr   Si   P    Te
   2   1   1   6
Direct configuration=     9
   0.33333300  0.33333300  0.49951962
   0.66666700  0.66666700  0.49959208
  -0.00000000  0.00000000  0.45370863
  -0.00000000  0.00000000  0.55240457
   0.62657195  0.00010682  0.57267402
   0.00010682  0.37332224  0.57267402
   0.37332224  0.62657195  0.57267402
   0.35882984  0.99989060  0.42558434
   0.99989060  0.64127856  0.42558434
   0.64127856  0.35882984  0.42558434
unknown system                          
           1
     6.812967   -0.000000   -0.000000
     3.406483    5.900202   -0.000000
    -0.000000    0.000000   23.042749
   Cr   Si   P    Te
   2   1   1   6
Direct configuration=    10
   0.33333300  0.33333300  0.49929166
   0.66666700  0.66666700  0.49934231
  -0.00000000  0.00000000  0.45410907
  -0.00000000  0.00000000  0.55279221
   0.62612352  0.00009822  0.57257202
   0.00009822  0.37377926  0.57257202
   0.37377926  0.62612352  0.57257202
   0.35847366  0.99991104  0.42558291
   0.99991104  0.64161430  0.42558291
   0.64161430  0.35847366  0.42558291
unknown system                          
           1
     6.825263   -0.000000   -0.000000
     3.412631    5.910850   -0.000000
    -0.000000    0.000000   22.982112
   Cr   Si   P    Te
   2   1   1   6
Direct configuration=    11
   0.33333300  0.33333300  0.49860717
   0.66666700  0.66666700  0.49859234
  -0.00000000  0.00000000  0.45531142
  -0.00000000  0.00000000  0.55395614
   0.62477905  0.00007246  0.57226572
   0.00007246  0.37514949  0.57226572
   0.37514949  0.62477905  0.57226572
   0.35740578  0.99997232  0.42557858
   0.99997232  0.64262089  0.42557858
   0.64262089  0.35740578  0.42557858
unknown system                          
           1
     6.849855   -0.000000   -0.000000
     3.424927    5.932148   -0.000000
    -0.000000    0.000000   22.860840
   Cr   Si   P    Te
   2   1   1   6
Direct configuration=    12
   0.33333300  0.33333300  0.49723458
   0.66666700  0.66666700  0.49708845
  -0.00000000  0.00000000  0.45772249
  -0.00000000  0.00000000  0.55629015
   0.62209496  0.00002103  0.57165152
   0.00002103  0.37788501  0.57165152
   0.37788501  0.62209496  0.57165152
   0.35527387  0.00009467  0.42556992
   0.00009467  0.64463046  0.42556992
   0.64463046  0.35527387  0.42556992
unknown system                          
           1
     6.860755   -0.000000   -0.000000
     3.430377    5.941588   -0.000000
    -0.000000    0.000000   22.918116
   Cr   Si   P    Te
   2   1   1   6
Direct configuration=    13
   0.33333300  0.33333300  0.49708972
   0.66666700  0.66666700  0.49694101
  -0.00000000  0.00000000  0.45836212
  -0.00000000  0.00000000  0.55734730
   0.62076380 -0.00002302  0.57146700
  -0.00002302  0.37926022  0.57146700
   0.37926022  0.62076380  0.57146700
   0.35465136  0.00013643  0.42528629
   0.00013643  0.64521121  0.42528629
   0.64521121  0.35465136  0.42528629
unknown system                          
           1
     6.869296   -0.000000   -0.000000
     3.434648    5.948984   -0.000000
    -0.000000    0.000000   22.962992
   Cr   Si   P    Te
   2   1   1   6
Direct configuration=    14
   0.33333300  0.33333300  0.49697651
   0.66666700  0.66666700  0.49682577
  -0.00000000  0.00000000  0.45886204
  -0.00000000  0.00000000  0.55817353
   0.61972247 -0.00005748  0.57132278
  -0.00005748  0.38033601  0.57132278
   0.38033601  0.61972247  0.57132278
   0.35416438  0.00016910  0.42506461
   0.00016910  0.64566552  0.42506461
   0.64566552  0.35416438  0.42506461
unknown system                          
           1
     6.886377   -0.000000   -0.000000
     3.443188    5.963777   -0.000000
    -0.000000    0.000000   23.052746
   Cr   Si   P    Te
   2   1   1   6
Direct configuration=    15
   0.33333300  0.33333300  0.49675052
   0.66666700  0.66666700  0.49659575
  -0.00000000  0.00000000  0.45985991
  -0.00000000  0.00000000  0.55982276
   0.61764239 -0.00012632  0.57103490
  -0.00012632  0.38248493  0.57103490
   0.38248493  0.61764239  0.57103490
   0.35319163  0.00023436  0.42462212
   0.00023436  0.64657301  0.42462212
   0.64657301  0.35319163  0.42462212
unknown system                          
           1
     6.874480   -0.000000   -0.000000
     3.437240    5.953474   -0.000000
    -0.000000    0.000000   22.990235
   Cr   Si   P    Te
   2   1   1   6
Direct configuration=    16
   0.33333300  0.33333300  0.49690730
   0.66666700  0.66666700  0.49675533
  -0.00000000  0.00000000  0.45916763
  -0.00000000  0.00000000  0.55867859
   0.61908751 -0.00007849  0.57123462
  -0.00007849  0.38099198  0.57123462
   0.38099198  0.61908751  0.57123462
   0.35386744  0.00018902  0.42492910
   0.00018902  0.64594254  0.42492910
   0.64594254  0.35386744  0.42492910
unknown system                          
           1
     6.856020   -0.000000   -0.000000
     3.428010    5.937487   -0.000000
    -0.000000    0.000000   23.035808
   Cr   Si   P    Te
   2   1   1   6
Direct configuration=    17
   0.33333300  0.33333300  0.49688939
   0.66666700  0.66666700  0.49676656
  -0.00000000  0.00000000  0.45980805
  -0.00000000  0.00000000  0.55919986
   0.61772595 -0.00012018  0.57101930
  -0.00012018  0.38239523  0.57101930
   0.38239523  0.61772595  0.57101930
   0.35313805  0.00022323  0.42475942
   0.00022323  0.64663771  0.42475942
   0.64663771  0.35313805  0.42475942
unknown system                          
           1
     6.844277   -0.000000   -0.000000
     3.422138    5.927317   -0.000000
    -0.000000    0.000000   23.064799
   Cr   Si   P    Te
   2   1   1   6
Direct configuration=    18
   0.33333300  0.33333300  0.49687802
   0.66666700  0.66666700  0.49677369
  -0.00000000  0.00000000  0.46021466
  -0.00000000  0.00000000  0.55953082
   0.61685745 -0.00014677  0.57088259
  -0.00014677  0.38329032  0.57088259
   0.38329032  0.61685745  0.57088259
   0.35267280  0.00024505  0.42465168
   0.00024505  0.64708115  0.42465168
   0.64708115  0.35267280  0.42465168
unknown system                          
           1
     6.833958   -0.000000   -0.000000
     3.416979    5.918381   -0.000000
    -0.000000    0.000000   23.026926
   Cr   Si   P    Te
   2   1   1   6
Direct configuration=    19
   0.33333300  0.33333300  0.49671829
   0.66666700  0.66666700  0.49662705
  -0.00000000  0.00000000  0.46054417
  -0.00000000  0.00000000  0.55921931
   0.61642124 -0.00014054  0.57086740
  -0.00014054  0.38372031  0.57086740
   0.38372031  0.61642124  0.57086740
   0.35256614  0.00020299  0.42476300
   0.00020299  0.64722987  0.42476300
   0.64722987  0.35256614  0.42476300
unknown system                          
           1
     6.834933   -0.000000   -0.000000
     3.417466    5.919225   -0.000000
    -0.000000    0.000000   23.030505
   Cr   Si   P    Te
   2   1   1   6
Direct configuration=    20
   0.33333300  0.33333300  0.49673341
   0.66666700  0.66666700  0.49664093
  -0.00000000  0.00000000  0.46051298
  -0.00000000  0.00000000  0.55924880
   0.61646252 -0.00014113  0.57086883
  -0.00014113  0.38367961  0.57086883
   0.38367961  0.61646252  0.57086883
   0.35257624  0.00020697  0.42475246
   0.00020697  0.64721579  0.42475246
   0.64721579  0.35257624  0.42475246
