 vasp.5.4.4.18Apr17-6-g9f103f2a35 (build May  1 2020 15:48:39) complex           
 executed on             LinuxGNU date 2020.06.28  18:23:26
 running on   16 total cores
 distrk:  each k-point on   16 cores,    1 groups
 distr:  one band on NCORES_PER_BAND=   1 cores,   16 groups


--------------------------------------------------------------------------------------------------------


 INCAR:
 POTCAR:   PAW_PBE Co 06Sep2000                   
 POTCAR:   PAW_PBE Ge 05Jan2001                   
 POTCAR:   PAW_PBE Si 05Jan2001                   
 POTCAR:   PAW_PBE Te 08Apr2002                   

 ----------------------------------------------------------------------------- 
|                                                                             |
|           W    W    AA    RRRRR   N    N  II  N    N   GGGG   !!!           |
|           W    W   A  A   R    R  NN   N  II  NN   N  G    G  !!!           |
|           W    W  A    A  R    R  N N  N  II  N N  N  G       !!!           |
|           W WW W  AAAAAA  RRRRR   N  N N  II  N  N N  G  GGG   !            |
|           WW  WW  A    A  R   R   N   NN  II  N   NN  G    G                |
|           W    W  A    A  R    R  N    N  II  N    N   GGGG   !!!           |
|                                                                             |
|      For optimal performance we recommend to set                            |
|        NCORE= 4 - approx SQRT( number of cores)                             |
|      NCORE specifies how many cores store one orbital (NPAR=cpu/NCORE).     |
|      This setting can  greatly improve the performance of VASP for DFT.     |
|      The default,   NCORE=1            might be grossly inefficient         |
|      on modern multi-core architectures or massively parallel machines.     |
|      Do your own testing !!!!                                               |
|      Unfortunately you need to use the default for GW and RPA calculations. |
|      (for HF NCORE is supported but not extensively tested yet)             |
|                                                                             |
 ----------------------------------------------------------------------------- 


 ----------------------------------------------------------------------------- 
|                                                                             |
|  ADVICE TO THIS USER RUNNING 'VASP/VAMP'   (HEAR YOUR MASTER'S VOICE ...):  |
|                                                                             |
|      You have switched on vdW-DFT.                                          |
|      This routine was written and supplied by Jiri Klimes.                  |
|      We recommed that you carefully read and cite the following             |
|      publication                                                            |
|      J. Klimes, D.R. Bowler, A. Michelides                                  |
|        J. Phys.: Cond Matt. 22 022201 (2010)                                |
|      J. Klimes, D.R. Bowler, A. Michelides                                  |
|        Phys. Rev. B. 83, 195131 (2011)                                      |
|      and references therein.                                                |
|                                                                             |
 ----------------------------------------------------------------------------- 

 POTCAR:   PAW_PBE Co 06Sep2000                   
   VRHFIN =Co: d8 s1                                                            
   LEXCH  = PE                                                                  
   EATOM  =   813.5563 eV,   59.7947 Ry                                         
                                                                                
   TITEL  = PAW_PBE Co 06Sep2000                                                
   LULTRA =        F    use ultrasoft PP ?                                      
   IUNSCR =        1    unscreen: 0-lin 1-nonlin 2-no                           
   RPACOR =    2.000    partial core radius                                     
   POMASS =   58.933; ZVAL   =    9.000    mass and valenz                      
   RCORE  =    2.300    outmost cutoff radius                                   
   RWIGS  =    2.460; RWIGS  =    1.302    wigner-seitz radius (au A)           
   ENMAX  =  267.969; ENMIN  =  200.977 eV                                      
   RCLOC  =    1.697    cutoff for local pot                                    
   LCOR   =        T    correct aug charges                                     
   LPAW   =        T    paw PP                                                  
   EAUG   =  477.818                                                            
   DEXC   =    -.016                                                            
   RMAX   =    2.817    core radius for proj-oper                               
   RAUG   =    1.300    factor for augmentation sphere                          
   RDEP   =    2.393    radius for radial grids                                 
   QCUT   =   -4.438; QGAM   =    8.876    optimization parameters              
                                                                                
   Description                                                                  
     l     E      TYP  RCUT    TYP  RCUT                                        
     2   .000     23  2.300                                                     
     2   .000     23  2.300                                                     
     0   .000     23  2.300                                                     
     0   .000     23  2.300                                                     
     1  -.200     23  2.300                                                     
     1   .000     23  2.300                                                     
     3   .000      7   .000                                                     
  local pseudopotential read in
  partial core-charges read in
  atomic valenz-charges read in
  non local Contribution for L=           2  read in
    real space projection operators read in
  non local Contribution for L=           2  read in
    real space projection operators read in
  non local Contribution for L=           0  read in
    real space projection operators read in
  non local Contribution for L=           0  read in
    real space projection operators read in
  non local Contribution for L=           1  read in
    real space projection operators read in
  non local Contribution for L=           1  read in
    real space projection operators read in
    PAW grid and wavefunctions read in

   number of l-projection  operators is LMAX  =           6
   number of lm-projection operators is LMMAX =          18

 POTCAR:   PAW_PBE Ge 05Jan2001                   
   VRHFIN =Ge: s2p2                                                             
   LEXCH  = PE                                                                  
   EATOM  =   104.9960 eV,    7.7170 Ry                                         
                                                                                
   TITEL  = PAW_PBE Ge 05Jan2001                                                
   LULTRA =        F    use ultrasoft PP ?                                      
   IUNSCR =        1    unscreen: 0-lin 1-nonlin 2-no                           
   RPACOR =    2.170    partial core radius                                     
   POMASS =   72.610; ZVAL   =    4.000    mass and valenz                      
   RCORE  =    2.300    outmost cutoff radius                                   
   RWIGS  =    2.300; RWIGS  =    1.217    wigner-seitz radius (au A)           
   ENMAX  =  173.807; ENMIN  =  130.355 eV                                      
   ICORE  =        3    local potential                                         
   LCOR   =        T    correct aug charges                                     
   LPAW   =        T    paw PP                                                  
   EAUG   =  385.843                                                            
   DEXC   =    -.138                                                            
   RMAX   =    3.497    core radius for proj-oper                               
   RAUG   =    1.300    factor for augmentation sphere                          
   RDEP   =    2.318    radius for radial grids                                 
   QCUT   =   -3.574; QGAM   =    7.148    optimization parameters              
                                                                                
   Description                                                                  
     l     E      TYP  RCUT    TYP  RCUT                                        
     0   .000     23  2.300                                                     
     0   .000     23  2.300                                                     
     1   .000     23  2.300                                                     
     1   .000     23  2.300                                                     
     2   .000     23  2.300                                                     
     3  -.100      7  2.300                                                     
  local pseudopotential read in
  partial core-charges read in
  atomic valenz-charges read in
  non local Contribution for L=           0  read in
    real space projection operators read in
  non local Contribution for L=           0  read in
    real space projection operators read in
  non local Contribution for L=           1  read in
    real space projection operators read in
  non local Contribution for L=           1  read in
    real space projection operators read in
  non local Contribution for L=           2  read in
    real space projection operators read in
    PAW grid and wavefunctions read in

   number of l-projection  operators is LMAX  =           5
   number of lm-projection operators is LMMAX =          13

 POTCAR:   PAW_PBE Si 05Jan2001                   
   VRHFIN =Si: s2p2                                                             
   LEXCH  = PE                                                                  
   EATOM  =   103.0669 eV,    7.5752 Ry                                         
                                                                                
   TITEL  = PAW_PBE Si 05Jan2001                                                
   LULTRA =        F    use ultrasoft PP ?                                      
   IUNSCR =        1    unscreen: 0-lin 1-nonlin 2-no                           
   RPACOR =    1.500    partial core radius                                     
   POMASS =   28.085; ZVAL   =    4.000    mass and valenz                      
   RCORE  =    1.900    outmost cutoff radius                                   
   RWIGS  =    2.480; RWIGS  =    1.312    wigner-seitz radius (au A)           
   ENMAX  =  245.345; ENMIN  =  184.009 eV                                      
   ICORE  =        2    local potential                                         
   LCOR   =        T    correct aug charges                                     
   LPAW   =        T    paw PP                                                  
   EAUG   =  322.069                                                            
   DEXC   =    -.007                                                            
   RMAX   =    2.944    core radius for proj-oper                               
   RAUG   =    1.300    factor for augmentation sphere                          
   RDEP   =    1.993    radius for radial grids                                 
   QCUT   =   -4.246; QGAM   =    8.493    optimization parameters              
                                                                                
   Description                                                                  
     l     E      TYP  RCUT    TYP  RCUT                                        
     0   .000     23  1.900                                                     
     0   .000     23  1.900                                                     
     1   .000     23  1.900                                                     
     1   .000     23  1.900                                                     
     2   .000      7  1.900                                                     
  local pseudopotential read in
  partial core-charges read in
  atomic valenz-charges read in
  non local Contribution for L=           0  read in
    real space projection operators read in
  non local Contribution for L=           0  read in
    real space projection operators read in
  non local Contribution for L=           1  read in
    real space projection operators read in
  non local Contribution for L=           1  read in
    real space projection operators read in
    PAW grid and wavefunctions read in

   number of l-projection  operators is LMAX  =           4
   number of lm-projection operators is LMMAX =           8

 POTCAR:   PAW_PBE Te 08Apr2002                   
   VRHFIN =Te: s2p4                                                             
   LEXCH  = PE                                                                  
   EATOM  =   223.2721 eV,   16.4100 Ry                                         
                                                                                
   TITEL  = PAW_PBE Te 08Apr2002                                                
   LULTRA =        F    use ultrasoft PP ?                                      
   IUNSCR =        1    unscreen: 0-lin 1-nonlin 2-no                           
   RPACOR =    2.200    partial core radius                                     
   POMASS =  127.600; ZVAL   =    6.000    mass and valenz                      
   RCORE  =    2.300    outmost cutoff radius                                   
   RWIGS  =    2.900; RWIGS  =    1.535    wigner-seitz radius (au A)           
   ENMAX  =  174.982; ENMIN  =  131.236 eV                                      
   ICORE  =        3    local potential                                         
   LCOR   =        T    correct aug charges                                     
   LPAW   =        T    paw PP                                                  
   EAUG   =  368.792                                                            
   DEXC   =    -.169                                                            
   RMAX   =    3.486    core radius for proj-oper                               
   RAUG   =    1.300    factor for augmentation sphere                          
   RDEP   =    2.397    radius for radial grids                                 
   QCUT   =   -3.586; QGAM   =    7.172    optimization parameters              
                                                                                
   Description                                                                  
     l     E      TYP  RCUT    TYP  RCUT                                        
     0   .000     23  2.300                                                     
     0   .000     23  2.300                                                     
     1   .000     23  2.300                                                     
     1   .000     23  2.300                                                     
     2   .000     23  2.300                                                     
     3  -.100     23  2.300                                                     
  local pseudopotential read in
  partial core-charges read in
  atomic valenz-charges read in
  non local Contribution for L=           0  read in
    real space projection operators read in
  non local Contribution for L=           0  read in
    real space projection operators read in
  non local Contribution for L=           1  read in
    real space projection operators read in
  non local Contribution for L=           1  read in
    real space projection operators read in
  non local Contribution for L=           2  read in
    real space projection operators read in
    PAW grid and wavefunctions read in

   number of l-projection  operators is LMAX  =           5
   number of lm-projection operators is LMMAX =          13

 Optimization of the real space projectors (new method)

 maximal supplied QI-value         = 16.25
 optimisation between [QCUT,QGAM] = [ 11.54, 23.24] = [ 37.28,151.24] Ry 
 Optimized for a Real-space Cutoff    1.53 Angstroem

   l    n(q)    QCUT    max X(q) W(low)/X(q) W(high)/X(q)  e(spline) 
   2     10    11.539     4.599    0.83E-05    0.15E-04    0.45E-07
   2     10    11.539    18.158    0.10E-03    0.14E-03    0.24E-06
   0     11    11.539    15.740    0.19E-04    0.12E-05    0.17E-07
   0     11    11.539    47.662    0.48E-04    0.15E-04    0.31E-06
   1     10    11.539     5.777    0.11E-04    0.46E-05    0.25E-07
   1     10    11.539     8.007    0.46E-04    0.29E-04    0.11E-06
 Optimization of the real space projectors (new method)

 maximal supplied QI-value         = 16.25
 optimisation between [QCUT,QGAM] = [ 11.54, 23.24] = [ 37.28,151.24] Ry 
 Optimized for a Real-space Cutoff    1.28 Angstroem

   l    n(q)    QCUT    max X(q) W(low)/X(q) W(high)/X(q)  e(spline) 
   0      9    11.539     8.651    0.22E-04    0.16E-04    0.10E-07
   0      9    11.539    33.192    0.11E-03    0.16E-03    0.65E-07
   1      8    11.539     5.899    0.37E-04    0.28E-04    0.43E-07
   1      8    11.539    27.289    0.22E-03    0.28E-04    0.14E-06
   2      8    11.539     4.673    0.11E-03    0.18E-03    0.58E-07
 Optimization of the real space projectors (new method)

 maximal supplied QI-value         = 19.84
 optimisation between [QCUT,QGAM] = [ 11.51, 23.22] = [ 37.09,150.92] Ry 
 Optimized for a Real-space Cutoff    1.21 Angstroem

   l    n(q)    QCUT    max X(q) W(low)/X(q) W(high)/X(q)  e(spline) 
   0      8    11.508     8.708    0.18E-04    0.44E-05    0.47E-08
   0      8    11.508   106.241    0.70E-04    0.15E-03    0.51E-07
   1      8    11.508     5.901    0.63E-05    0.23E-04    0.21E-07
   1      8    11.508    73.241    0.15E-03    0.36E-04    0.79E-07
 Optimization of the real space projectors (new method)

 maximal supplied QI-value         = 16.25
 optimisation between [QCUT,QGAM] = [ 11.54, 23.24] = [ 37.28,151.24] Ry 
 Optimized for a Real-space Cutoff    1.36 Angstroem

   l    n(q)    QCUT    max X(q) W(low)/X(q) W(high)/X(q)  e(spline) 
   0      9    11.539     7.090    0.13E-04    0.25E-05    0.51E-08
   0      9    11.539   101.654    0.53E-04    0.69E-04    0.12E-06
   1      9    11.539     5.276    0.20E-04    0.98E-05    0.24E-07
   1      9    11.539    81.891    0.24E-03    0.13E-04    0.15E-06
   2      9    11.539     5.599    0.30E-04    0.97E-04    0.54E-07

 ----------------------------------------------------------------------------- 
|                                                                             |
|  ADVICE TO THIS USER RUNNING 'VASP/VAMP'   (HEAR YOUR MASTER'S VOICE ...):  |
|                                                                             |
|      You enforced a specific xc-type in the INCAR file,                     |
|      a different type was found on the POTCAR file                          |
|          I HOPE YOU KNOW, WHAT YOU ARE  DOING                               |
|                                                                             |
 ----------------------------------------------------------------------------- 

 PAW_PBE Co 06Sep2000                   :
 energy of atom  1       EATOM= -813.5563
 kinetic energy error for atom=    0.0028 (will be added to EATOM!!)
 PAW_PBE Ge 05Jan2001                   :
 energy of atom  2       EATOM= -104.9960
 kinetic energy error for atom=    0.0002 (will be added to EATOM!!)
 PAW_PBE Si 05Jan2001                   :
 energy of atom  3       EATOM= -103.0669
 kinetic energy error for atom=    0.0005 (will be added to EATOM!!)
 PAW_PBE Te 08Apr2002                   :
 energy of atom  4       EATOM= -223.2721
 kinetic energy error for atom=    0.0007 (will be added to EATOM!!)


 POSCAR: Co2 Ge Si Te6                           
  positions in direct lattice
  velocities in cartesian coordinates
  No initial velocities read in
 exchange correlation table for  LEXCH =       42
   RHO(1)=    0.500       N(1)  =     2000
   RHO(2)=  100.500       N(2)  =     4000



--------------------------------------------------------------------------------------------------------


 ion  position               nearest neighbor table
   1  0.333  0.333  0.500-   6 2.78   5 2.78   7 2.78   8 2.78  10 2.78   9 2.78
   2  0.667  0.667  0.500-   9 2.78   8 2.78  10 2.78   5 2.78   7 2.78   6 2.78
   3  0.000  0.000  0.448-   4 2.43   8 2.63  10 2.63   9 2.63
   4  0.000  0.000  0.552-   3 2.43   5 2.63   7 2.63   6 2.63
   5  0.626  0.000  0.574-   4 2.63   1 2.78   2 2.78
   6  0.000  0.373  0.574-   4 2.63   1 2.78   2 2.78
   7  0.373  0.626  0.574-   4 2.63   1 2.78   2 2.78
   8  0.374  1.000  0.426-   3 2.63   2 2.78   1 2.78
   9  1.000  0.627  0.426-   3 2.63   2 2.78   1 2.78
  10  0.627  0.374  0.426-   3 2.63   2 2.78   1 2.78

  LATTYP: Found a hexagonal cell.
 ALAT       =     6.9077769333
 C/A-ratio  =     3.3939410937
  
  Lattice vectors:
  
 A1 = (   3.4538890000,  -5.9823100000,   0.0000000000)
 A2 = (  -6.9077770000,   0.0000000000,   0.0000000000)
 A3 = (   0.0000000000,   0.0000000000, -23.4445880000)


Analysis of symmetry for initial positions (statically):
=====================================================================
 Subroutine PRICEL returns:
 Original cell was already a primitive cell.
 

 Routine SETGRP: Setting up the symmetry group for a 
 hexagonal supercell.


 Subroutine GETGRP returns: Found  3 space group operations
 (whereof  3 operations were pure point group operations)
 out of a pool of 24 trial point group operations.


The static configuration has the point symmetry C_3 .


Analysis of symmetry for dynamics (positions and initial velocities):
=====================================================================
 Subroutine PRICEL returns:
 Original cell was already a primitive cell.
 

 Routine SETGRP: Setting up the symmetry group for a 
 hexagonal supercell.


 Subroutine GETGRP returns: Found  3 space group operations
 (whereof  3 operations were pure point group operations)
 out of a pool of 24 trial point group operations.


The dynamic configuration has the point symmetry C_3 .


Analysis of constrained symmetry for selective dynamics:
=====================================================================
 Subroutine PRICEL returns:
 Original cell was already a primitive cell.
 

 Routine SETGRP: Setting up the symmetry group for a 
 hexagonal supercell.


 Subroutine GETGRP returns: Found  3 space group operations
 (whereof  3 operations were pure point group operations)
 out of a pool of 24 trial point group operations.


The constrained configuration has the point symmetry C_3 .


Analysis of structural, dynamic, and magnetic symmetry:
=====================================================================
 Subroutine PRICEL returns:
 Original cell was already a primitive cell.
 

 Routine SETGRP: Setting up the symmetry group for a 
 hexagonal supercell.


 Subroutine GETGRP returns: Found  3 space group operations
 (whereof  3 operations were pure point group operations)
 out of a pool of 24 trial point group operations.


The magnetic configuration has the point symmetry C_3 .


 Subroutine INISYM returns: Found  3 space group operations
 (whereof  3 operations are pure point group operations),
 and found     1 'primitive' translations



 KPOINTS: Kpoints from vasprun.xml                

Automatic generation of k-mesh.
Space group operators:
 irot       det(A)        alpha          n_x          n_y          n_z        tau_x        tau_y        tau_z
    1     1.000000     0.000000     1.000000     0.000000     0.000000     0.000000     0.000000     0.000000
    2     1.000000   120.000000     0.000000     0.000000     1.000000     0.000000     0.000000     0.000000
    3     1.000000   120.000000     0.000000     0.000000    -1.000000     0.000000     0.000000     0.000000
 
 Subroutine IBZKPT returns following result:
 ===========================================
 
 Found      5 irreducible k-points:
 
 Following reciprocal coordinates:
            Coordinates               Weight
  0.000000  0.000000  0.000000      1.000000
  0.200000  0.000000  0.000000      6.000000
  0.400000  0.000000  0.000000      6.000000
  0.400000  0.200000  0.000000      6.000000
 -0.400000  0.200000  0.000000      6.000000
 
 Following cartesian coordinates:
            Coordinates               Weight
  0.000000  0.000000  0.000000      1.000000
  0.028953 -0.016716  0.000000      6.000000
  0.057906 -0.033432  0.000000      6.000000
  0.057906  0.000000  0.000000      6.000000
 -0.057906  0.066864  0.000000      6.000000
 
 TETIRR: Found     15 inequivalent tetrahedra from      150


--------------------------------------------------------------------------------------------------------




 Dimension of arrays:
   k-points           NKPTS =      5   k-points in BZ     NKDIM =      5   number of bands    NBANDS=     48
   number of dos      NEDOS =    301   number of ions     NIONS =     10
   non local maximal  LDIM  =      6   non local SUM 2l+1 LMDIM =     18
   total plane-waves  NPLWV = 524880
   max r-space proj   IRMAX =   8238   max aug-charges    IRDMAX=  31706
   dimension x,y,z NGX =    54 NGY =   54 NGZ =  180
   dimension x,y,z NGXF=   108 NGYF=  108 NGZF=  360
   support grid    NGXF=   108 NGYF=  108 NGZF=  360
   ions per type =               2   1   1   6
   NGX,Y,Z   is equivalent  to a cutoff of  13.00, 13.00, 12.76 a.u.
   NGXF,Y,Z  is equivalent  to a cutoff of  25.99, 25.99, 25.53 a.u.

 SYSTEM =  unknown system                          
 POSCAR =  Co2 Ge Si Te6                           

 Startparameter for this run:
   NWRITE =      2    write-flag & timer
   PREC   = accura    normal or accurate (medium, high low for compatibility)
   ISTART =      0    job   : 0-new  1-cont  2-samecut
   ICHARG =      2    charge: 1-file 2-atom 10-const
   ISPIN  =      2    spin polarized calculation?
   LNONCOLLINEAR =      F non collinear calculations
   LSORBIT =      F    spin-orbit coupling
   INIWAV =      1    electr: 0-lowe 1-rand  2-diag
   LASPH  =      F    aspherical Exc in radial PAW
   METAGGA=      F    non-selfconsistent MetaGGA calc.

 Electronic Relaxation 1
   ENCUT  =  520.0 eV  38.22 Ry    6.18 a.u.  12.84 12.84 43.59*2*pi/ulx,y,z
   ENINI  =  520.0     initial cutoff
   ENAUG  =  477.8 eV  augmentation charge cutoff
   NELM   =    400;   NELMIN=  2; NELMDL=  0     # of ELM steps 
   EDIFF  = 0.1E-03   stopping-criterion for ELM
   LREAL  =      T    real-space projection
   NLSPLINE    = F    spline interpolate recip. space projectors
   LCOMPAT=      F    compatible to vasp.4.4
   GGA_COMPAT  = T    GGA compatible to vasp.4.4-vasp.4.6
   LMAXPAW     = -100 max onsite density
   LMAXMIX     =    2 max onsite mixed and CHGCAR
   VOSKOWN=      0    Vosko Wilk Nusair interpolation
   ROPT   =   -0.00025  -0.00025  -0.00025  -0.00025
 Ionic relaxation
   EDIFFG = 0.1E-02   stopping-criterion for IOM
   NSW    =     99    number of steps for IOM
   NBLOCK =      1;   KBLOCK =     99    inner block; outer block 
   IBRION =      2    ionic relax: 0-MD 1-quasi-New 2-CG
   NFREE  =      1    steps in history (QN), initial steepest desc. (CG)
   ISIF   =      3    stress and relaxation
   IWAVPR =     11    prediction:  0-non 1-charg 2-wave 3-comb
   ISYM   =      2    0-nonsym 1-usesym 2-fastsym
   LCORR  =      T    Harris-Foulkes like correction to forces

   POTIM  = 0.5000    time-step for ionic-motion
   TEIN   =    0.0    initial temperature
   TEBEG  =    0.0;   TEEND  =   0.0 temperature during run
   SMASS  =  -3.00    Nose mass-parameter (am)
   estimated Nose-frequenzy (Omega)   =  0.10E-29 period in steps =****** mass=  -0.109E-26a.u.
   SCALEE = 1.0000    scale energy and forces
   NPACO  =    256;   APACO  = 16.0  distance and # of slots for P.C.
   PSTRESS=    0.0 pullay stress

  Mass of Ions in am
   POMASS =  58.93 72.61 28.09127.60
  Ionic Valenz
   ZVAL   =   9.00  4.00  4.00  6.00
  Atomic Wigner-Seitz radii
   RWIGS  =  -1.00 -1.00 -1.00 -1.00
  virtual crystal weights 
   VCA    =   1.00  1.00  1.00  1.00
   NELECT =      62.0000    total number of electrons
   NUPDOWN=      -1.0000    fix difference up-down

 DOS related values:
   EMIN   =  10.00;   EMAX   =-10.00  energy-range for DOS
   EFERMI =   0.00
   ISMEAR =    -5;   SIGMA  =   0.05  broadening in eV -4-tet -1-fermi 0-gaus

 Electronic relaxation 2 (details)
   IALGO  =     38    algorithm
   LDIAG  =      T    sub-space diagonalisation (order eigenvalues)
   LSUBROT=      F    optimize rotation matrix (better conditioning)
   TURBO    =      0    0=normal 1=particle mesh
   IRESTART =      0    0=no restart 2=restart with 2 vectors
   NREBOOT  =      0    no. of reboots
   NMIN     =      0    reboot dimension
   EREF     =   0.00    reference energy to select bands
   IMIX   =      4    mixing-type and parameters
     AMIX     =   0.40;   BMIX     =  1.00
     AMIX_MAG =   1.60;   BMIX_MAG =  1.00
     AMIN     =   0.01
     WC   =   100.;   INIMIX=   1;  MIXPRE=   1;  MAXMIX= -45

 Intra band minimization:
   WEIMIN = 0.0010     energy-eigenvalue tresh-hold
   EBREAK =  0.52E-06  absolut break condition
   DEPER  =   0.30     relativ break condition  

   TIME   =   0.40     timestep for ELM

  volume/ion in A,a.u.               =      96.88       653.80
  Fermi-wavevector in a.u.,A,eV,Ry     =   0.654820  1.237431  5.834037  0.428790
  Thomas-Fermi vector in A             =   1.725500

 Write flags
   LWAVE        =      F    write WAVECAR
   LDOWNSAMPLE  =      F    k-point downsampling of WAVECAR
   LCHARG       =      T    write CHGCAR
   LVTOT        =      F    write LOCPOT, total local potential
   LVHAR        =      F    write LOCPOT, Hartree potential only
   LELF         =      F    write electronic localiz. function (ELF)
   LORBIT       =     11    0 simple, 1 ext, 2 COOP (PROOUT), +10 PAW based schemes


 Dipole corrections
   LMONO  =      F    monopole corrections only (constant potential shift)
   LDIPOL =      F    correct potential (dipole corrections)
   IDIPOL =      0    1-x, 2-y, 3-z, 4-all directions 
   EPSILON=  1.0000000 bulk dielectric constant

 Exchange correlation treatment:
   GGA     =    BO    GGA type
   LEXCH   =    42    internal setting for exchange type
   VOSKOWN=      0    Vosko Wilk Nusair interpolation
   LHFCALC =     F    Hartree Fock is set to
   LHFONE  =     F    Hartree Fock one center treatment
   AEXX    =    0.0000 exact exchange contribution

 vdW DFT:
   LUSE_VDW   =     T    switch on vdW DFT
   Zab_VDW    =-.8491    correlation parameter
   PARAM1     =0.1833
   PARAM2     =0.2200
   PARAM3     =0.0000
   -- rVV10 --
   BPARAM     = 6.3000
   CPARAM     = 0.0093

 Linear response parameters
   LEPSILON=     F    determine dielectric tensor
   LRPA    =     F    only Hartree local field effects (RPA)
   LNABLA  =     F    use nabla operator in PAW spheres
   LVEL    =     F    velocity operator in full k-point grid
   LINTERFAST=   F  fast interpolation
   KINTER  =     0    interpolate to denser k-point grid
   CSHIFT  =0.1000    complex shift for real part using Kramers Kronig
   OMEGAMAX=  -1.0    maximum frequency
   DEG_THRESHOLD= 0.2000000E-02 threshold for treating states as degnerate
   RTIME   =   -0.100 relaxation time in fs
  (WPLASMAI=    0.000 imaginary part of plasma frequency in eV, 0.658/RTIME)
   DFIELD  = 0.0000000 0.0000000 0.0000000 field for delta impulse in time

 Orbital magnetization related:
   ORBITALMAG=     F  switch on orbital magnetization
   LCHIMAG   =     F  perturbation theory with respect to B field
   DQ        =  0.001000  dq finite difference perturbation B field
   LLRAUG    =     F  two centre corrections for induced B field



--------------------------------------------------------------------------------------------------------


 conjugate gradient relaxation of ions
   using selective dynamics as specified on POSCAR
 charge density and potential will be updated during run
 spin polarized calculation
 Variant of blocked Davidson
 Davidson routine will perform the subspace rotation
 perform sub-space diagonalisation
    after iterative eigenvector-optimisation
 modified Broyden-mixing scheme, WC =      100.0
 initial mixing is a Kerker type mixing with AMIX =  0.4000 and BMIX =      1.0000
 Hartree-type preconditioning will be used
 using additional bands           17
 real space projection scheme for non local part
 use partial core corrections
 calculate Harris-corrections to forces   (improved forces if not selfconsistent)
 use gradient corrections 
 use of overlap-Matrix (Vanderbilt PP)
 Fermi weights with tetrahedron method with Bloechl corrections


--------------------------------------------------------------------------------------------------------


  energy-cutoff  :      520.00
  volume of cell :      968.84
      direct lattice vectors                 reciprocal lattice vectors
     6.907777000 -0.000000000  0.000000000     0.144764372 -0.083579742  0.000000000
     3.453888000  5.982310000  0.000000000     0.000000000  0.167159509 -0.000000000
     0.000000000  0.000000000 23.444588000    -0.000000000  0.000000000  0.042653767

  length of vectors
     6.907777000  6.907776433 23.444588000     0.167159495  0.167159509  0.042653767



 k-points in units of 2pi/SCALE and weight: Kpoints from vasprun.xml                
   0.00000000  0.00000000  0.00000000       0.040
   0.02895287 -0.01671595  0.00000000       0.240
   0.05790575 -0.03343190  0.00000000       0.240
   0.05790575  0.00000000  0.00000000       0.240
  -0.05790575  0.06686380  0.00000000       0.240

 k-points in reciprocal lattice and weights: Kpoints from vasprun.xml                
   0.00000000  0.00000000  0.00000000       0.040
   0.20000000  0.00000000  0.00000000       0.240
   0.40000000  0.00000000  0.00000000       0.240
   0.40000000  0.20000000  0.00000000       0.240
  -0.40000000  0.20000000  0.00000000       0.240

 position of ions in fractional coordinates (direct lattice) 
   0.33333300  0.33333300  0.49992500
   0.66666700  0.66666700  0.50007500
   0.00000000  0.00000000  0.44821600
   0.00000000  0.00000000  0.55178400
   0.62635700  0.00042000  0.57375200
   0.00042000  0.37322400  0.57375200
   0.37322400  0.62635700  0.57375200
   0.37364300  0.99958000  0.42624800
   0.99958000  0.62677600  0.42624800
   0.62677600  0.37364300  0.42624800

 position of ions in cartesian coordinates  (Angst):
   3.45388488  1.99410134 11.72053566
   6.90778012  3.98820866 11.72405234
   0.00000000  0.00000000 10.50823946
   0.00000000  0.00000000 12.93634854
   4.32818511  0.00251257 13.45137925
   1.29197516  2.23274167 13.45137925
   4.74151509  3.74706174 13.45137925
   6.03347989  5.97979743  9.99320875
   9.06968984  3.74956833  9.99320875
   5.62014991  2.23524826  9.99320875



--------------------------------------------------------------------------------------------------------


 k-point  1 :   0.0000 0.0000 0.0000  plane waves:   26073
 k-point  2 :   0.2000 0.0000 0.0000  plane waves:   26070
 k-point  3 :   0.4000 0.0000 0.0000  plane waves:   26086
 k-point  4 :   0.4000 0.2000 0.0000  plane waves:   26085
 k-point  5 :  -0.4000 0.2000 0.0000  plane waves:   26115

 maximum and minimum number of plane-waves per node :     26115    26070

 maximum number of plane-waves:     26115
 maximum index in each direction: 
   IXMAX=   13   IYMAX=   12   IZMAX=   43
   IXMIN=  -13   IYMIN=  -13   IZMIN=  -43


 serial   3D FFT for wavefunctions
 parallel 3D FFT for charge:
    minimum data exchange during FFTs selected (reduces bandwidth)


 total amount of memory used by VASP MPI-rank0   131047. kBytes
=======================================================================

   base      :      30000. kBytes
   nonlr-proj:       8547. kBytes
   fftplans  :      11247. kBytes
   grid      :      68332. kBytes
   one-center:        311. kBytes
   wavefun   :      12610. kBytes

     INWAV:  cpu time    0.0000: real time    0.0004
 Broyden mixing: mesh for mixing (old mesh)
   NGX = 25   NGY = 25   NGZ = 87
  (NGX  =108   NGY  =108   NGZ  =360)
  gives a total of  54375 points

 initial charge density was supplied:
 charge density of overlapping atoms calculated
 number of electron      62.0000000 magnetization       9.7800000
 keeping initial charge density in first step


--------------------------------------------------------------------------------------------------------


 Maximum index for non-local projection operator         7925
 Maximum index for augmentation-charges         2278 (set IRDMAX)


--------------------------------------------------------------------------------------------------------


 First call to EWALD:  gamma=   0.179
 Maximum number of real-space cells 4x 4x 1
 Maximum number of reciprocal cells 2x 2x 6

    FEWALD:  cpu time    0.0000: real time    0.0014


--------------------------------------- Iteration      1(   1)  ---------------------------------------


vdW kernel read from vdw_kernel.bindat
  0.0000  0.2424  0.5071  0.7962  1.1119  1.4567  1.8333  2.2446  2.6937  3.1842
  3.7199  4.3049  4.9438  5.6415  6.4036  7.2358  8.1446  9.1372 10.2212 11.4050
 12.6979 14.1099 15.6519 17.3360 19.1751 21.1837 23.3773 25.7729 28.3892 31.2465
 34.3669 37.7748 41.4965 45.5611 50.0000

    POTLOK:  cpu time   51.6640: real time   51.9088
    SETDIJ:  cpu time    0.0480: real time    0.0515
     EDDAV:  cpu time   22.8720: real time   23.1485
 BZINTS: Fermi energy:  5.476561; 62.000000 electrons
         Band energy:  18.273893;  BLOECHL correction: -0.027684
       DOS:  cpu time    0.0040: real time    0.0045
    --------------------------------------------
      LOOP:  cpu time   74.5880: real time   75.1134

 eigenvalue-minimisations  :   960
 total energy-change (2. order) : 0.3869585E+03  (-0.1849390E+04)
 number of electron      62.0000000 magnetization       9.7800000
 augmentation part       62.0000000 magnetization       9.7800000

 Free energy of the ion-electron system (eV)
  ---------------------------------------------------
  alpha Z        PSCENC =        17.99564176
  Ewald energy   TEWEN  =      7529.91642125
  -Hartree energ DENC   =    -10377.13274141
  -exchange      EXHF   =         0.00000000
  -V(xc)+E(xc)   XCENC  =      -160.79875006
  PAW double counting   =      1970.39897807    -1801.22860299
  entropy T*S    EENTRO =         0.00000000
  eigenvalues    EBANDS =        18.27389301
  atomic energy  EATOM  =      3189.53368339
  Solvation  Ediel_sol  =         0.00000000
  ---------------------------------------------------
  free energy    TOTEN  =       386.95852303 eV

  energy without entropy =      386.95852303  energy(sigma->0) =      386.95852303


--------------------------------------------------------------------------------------------------------




--------------------------------------- Iteration      1(   2)  ---------------------------------------


     EDDAV:  cpu time   30.1880: real time   30.5849
 BZINTS: Fermi energy: -1.037067; 62.000000 electrons
         Band energy:-360.685202;  BLOECHL correction: -0.012091
       DOS:  cpu time    0.0080: real time    0.0065
    --------------------------------------------
      LOOP:  cpu time   30.1960: real time   30.5914

 eigenvalue-minimisations  :  1312
 total energy-change (2. order) :-0.3789591E+03  (-0.3582073E+03)
 number of electron      62.0000000 magnetization       9.7800000
 augmentation part       62.0000000 magnetization       9.7800000

 Free energy of the ion-electron system (eV)
  ---------------------------------------------------
  alpha Z        PSCENC =        17.99564176
  Ewald energy   TEWEN  =      7529.91642125
  -Hartree energ DENC   =    -10377.13274141
  -exchange      EXHF   =         0.00000000
  -V(xc)+E(xc)   XCENC  =      -160.79875006
  PAW double counting   =      1970.39897807    -1801.22860299
  entropy T*S    EENTRO =         0.00000000
  eigenvalues    EBANDS =      -360.68520196
  atomic energy  EATOM  =      3189.53368339
  Solvation  Ediel_sol  =         0.00000000
  ---------------------------------------------------
  free energy    TOTEN  =         7.99942806 eV

  energy without entropy =        7.99942806  energy(sigma->0) =        7.99942806


--------------------------------------------------------------------------------------------------------




--------------------------------------- Iteration      1(   3)  ---------------------------------------


     EDDAV:  cpu time   29.1720: real time   29.7887
 BZINTS: Fermi energy: -1.546673; 62.000000 electrons
         Band energy:-404.167953;  BLOECHL correction: -0.023965
       DOS:  cpu time    0.0040: real time    0.0056
    --------------------------------------------
      LOOP:  cpu time   29.1760: real time   29.7943

 eigenvalue-minimisations  :  1264
 total energy-change (2. order) :-0.4348275E+02  (-0.4245615E+02)
 number of electron      62.0000000 magnetization       9.7800000
 augmentation part       62.0000000 magnetization       9.7800000

 Free energy of the ion-electron system (eV)
  ---------------------------------------------------
  alpha Z        PSCENC =        17.99564176
  Ewald energy   TEWEN  =      7529.91642125
  -Hartree energ DENC   =    -10377.13274141
  -exchange      EXHF   =         0.00000000
  -V(xc)+E(xc)   XCENC  =      -160.79875006
  PAW double counting   =      1970.39897807    -1801.22860299
  entropy T*S    EENTRO =         0.00000000
  eigenvalues    EBANDS =      -404.16795311
  atomic energy  EATOM  =      3189.53368339
  Solvation  Ediel_sol  =         0.00000000
  ---------------------------------------------------
  free energy    TOTEN  =       -35.48332309 eV

  energy without entropy =      -35.48332309  energy(sigma->0) =      -35.48332309


--------------------------------------------------------------------------------------------------------




--------------------------------------- Iteration      1(   4)  ---------------------------------------


     EDDAV:  cpu time   30.4200: real time   30.9538
 BZINTS: Fermi energy: -1.562577; 62.000000 electrons
         Band energy:-405.896621;  BLOECHL correction: -0.024062
       DOS:  cpu time    0.0080: real time    0.0050
    --------------------------------------------
      LOOP:  cpu time   30.4280: real time   30.9588

 eigenvalue-minimisations  :  1328
 total energy-change (2. order) :-0.1728668E+01  (-0.1725824E+01)
 number of electron      62.0000000 magnetization       9.7800000
 augmentation part       62.0000000 magnetization       9.7800000

 Free energy of the ion-electron system (eV)
  ---------------------------------------------------
  alpha Z        PSCENC =        17.99564176
  Ewald energy   TEWEN  =      7529.91642125
  -Hartree energ DENC   =    -10377.13274141
  -exchange      EXHF   =         0.00000000
  -V(xc)+E(xc)   XCENC  =      -160.79875006
  PAW double counting   =      1970.39897807    -1801.22860299
  entropy T*S    EENTRO =         0.00000000
  eigenvalues    EBANDS =      -405.89662113
  atomic energy  EATOM  =      3189.53368339
  Solvation  Ediel_sol  =         0.00000000
  ---------------------------------------------------
  free energy    TOTEN  =       -37.21199111 eV

  energy without entropy =      -37.21199111  energy(sigma->0) =      -37.21199111


--------------------------------------------------------------------------------------------------------




--------------------------------------- Iteration      1(   5)  ---------------------------------------


     EDDAV:  cpu time   32.4400: real time   32.7889
 BZINTS: Fermi energy: -1.563049; 62.000000 electrons
         Band energy:-405.927672;  BLOECHL correction: -0.024084
       DOS:  cpu time    0.0040: real time    0.0074
    CHARGE:  cpu time    2.0800: real time    2.0848
    MIXING:  cpu time    0.0400: real time    0.0400
    --------------------------------------------
      LOOP:  cpu time   34.5640: real time   34.9212

 eigenvalue-minimisations  :  1408
 total energy-change (2. order) :-0.3105078E-01  (-0.3105804E-01)
 number of electron      61.9999996 magnetization       9.4725305
 augmentation part       -0.2547441 magnetization       6.8124763

 Broyden mixing:
  rms(total) = 0.20070E+01    rms(broyden)= 0.20070E+01
  rms(prec ) = 0.21635E+01
  weight for this iteration     100.00

 Free energy of the ion-electron system (eV)
  ---------------------------------------------------
  alpha Z        PSCENC =        17.99564176
  Ewald energy   TEWEN  =      7529.91642125
  -Hartree energ DENC   =    -10377.13274141
  -exchange      EXHF   =         0.00000000
  -V(xc)+E(xc)   XCENC  =      -160.79875006
  PAW double counting   =      1970.39897807    -1801.22860299
  entropy T*S    EENTRO =         0.00000000
  eigenvalues    EBANDS =      -405.92767191
  atomic energy  EATOM  =      3189.53368339
  Solvation  Ediel_sol  =         0.00000000
  ---------------------------------------------------
  free energy    TOTEN  =       -37.24304189 eV

  energy without entropy =      -37.24304189  energy(sigma->0) =      -37.24304189


--------------------------------------------------------------------------------------------------------




--------------------------------------- Iteration      1(   6)  ---------------------------------------


    POTLOK:  cpu time   51.9960: real time   52.4107
    SETDIJ:  cpu time    0.0480: real time    0.0637
     EDDAV:  cpu time   26.3200: real time   26.8139
 BZINTS: Fermi energy: -3.325919; 62.000000 electrons
         Band energy:-554.219623;  BLOECHL correction: -0.043005
       DOS:  cpu time    0.0040: real time    0.0065
    CHARGE:  cpu time    2.0200: real time    2.0867
    MIXING:  cpu time    0.0400: real time    0.0424
    --------------------------------------------
      LOOP:  cpu time   80.4280: real time   81.4240

 eigenvalue-minimisations  :  1120
 total energy-change (2. order) :-0.3018686E+02  (-0.2861268E+02)
 number of electron      61.9999988 magnetization       9.1829676
 augmentation part        7.5163312 magnetization       9.0715559

 Broyden mixing:
  rms(total) = 0.46942E+01    rms(broyden)= 0.46941E+01
  rms(prec ) = 0.49795E+01
  weight for this iteration     100.00

 eigenvalues of (default mixing * dielectric matrix)
  average eigenvalue GAMMA=   0.2618
  0.2618

 Free energy of the ion-electron system (eV)
  ---------------------------------------------------
  alpha Z        PSCENC =        17.99564176
  Ewald energy   TEWEN  =      7529.91642125
  -Hartree energ DENC   =    -10279.56249892
  -exchange      EXHF   =         0.00000000
  -V(xc)+E(xc)   XCENC  =      -161.59319461
  PAW double counting   =      1830.25443343    -1639.75476437
  entropy T*S    EENTRO =         0.00000000
  eigenvalues    EBANDS =      -554.21962278
  atomic energy  EATOM  =      3189.53368339
  Solvation  Ediel_sol  =         0.00000000
  ---------------------------------------------------
  free energy    TOTEN  =       -67.42990085 eV

  energy without entropy =      -67.42990085  energy(sigma->0) =      -67.42990085


--------------------------------------------------------------------------------------------------------




--------------------------------------- Iteration      1(   7)  ---------------------------------------


    POTLOK:  cpu time   51.8160: real time   52.8878
    SETDIJ:  cpu time    0.0520: real time    0.0680
     EDDAV:  cpu time   27.0040: real time   27.3803
 BZINTS: Fermi energy: -3.035538; 62.000000 electrons
         Band energy:-444.311707;  BLOECHL correction: -0.057495
       DOS:  cpu time    0.0040: real time    0.0064
    CHARGE:  cpu time    2.0600: real time    2.0775
    MIXING:  cpu time    0.0640: real time    0.0664
    --------------------------------------------
      LOOP:  cpu time   81.0000: real time   82.4865

 eigenvalue-minimisations  :  1152
 total energy-change (2. order) : 0.2995134E+02  (-0.4006334E+01)
 number of electron      61.9999991 magnetization       8.9175266
 augmentation part        5.0935657 magnetization       9.0488378

 Broyden mixing:
  rms(total) = 0.22481E+01    rms(broyden)= 0.22481E+01
  rms(prec ) = 0.24002E+01
  weight for this iteration     100.00

 eigenvalues of (default mixing * dielectric matrix)
  average eigenvalue GAMMA=   0.4601
  0.4601  0.4601

 Free energy of the ion-electron system (eV)
  ---------------------------------------------------
  alpha Z        PSCENC =        17.99564176
  Ewald energy   TEWEN  =      7529.91642125
  -Hartree energ DENC   =    -10341.61124046
  -exchange      EXHF   =         0.00000000
  -V(xc)+E(xc)   XCENC  =      -161.72636191
  PAW double counting   =      1944.47814167    -1771.75314180
  entropy T*S    EENTRO =         0.00000000
  eigenvalues    EBANDS =      -444.31170725
  atomic energy  EATOM  =      3189.53368339
  Solvation  Ediel_sol  =         0.00000000
  ---------------------------------------------------
  free energy    TOTEN  =       -37.47856334 eV

  energy without entropy =      -37.47856334  energy(sigma->0) =      -37.47856334


--------------------------------------------------------------------------------------------------------




--------------------------------------- Iteration      1(   8)  ---------------------------------------


    POTLOK:  cpu time   52.1560: real time   52.2957
    SETDIJ:  cpu time    0.0560: real time    0.0540
     EDDAV:  cpu time   33.5720: real time   34.3965
 BZINTS: Fermi energy: -2.811082; 62.000000 electrons
         Band energy:-424.094194;  BLOECHL correction: -0.044706
       DOS:  cpu time    0.0080: real time    0.0070
    CHARGE:  cpu time    2.0240: real time    2.0687
    MIXING:  cpu time    0.0480: real time    0.0496
    --------------------------------------------
      LOOP:  cpu time   87.8640: real time   88.8715

 eigenvalue-minimisations  :  1488
 total energy-change (2. order) : 0.2661478E+01  (-0.5792655E+00)
 number of electron      61.9999993 magnetization       9.4961205
 augmentation part        3.7149239 magnetization       9.9317033

 Broyden mixing:
  rms(total) = 0.13769E+01    rms(broyden)= 0.13769E+01
  rms(prec ) = 0.14391E+01
  weight for this iteration     100.00

 eigenvalues of (default mixing * dielectric matrix)
  average eigenvalue GAMMA=   0.5088
  0.4482  0.4482  0.6299

 Free energy of the ion-electron system (eV)
  ---------------------------------------------------
  alpha Z        PSCENC =        17.99564176
  Ewald energy   TEWEN  =      7529.91642125
  -Hartree energ DENC   =    -10357.44477447
  -exchange      EXHF   =         0.00000000
  -V(xc)+E(xc)   XCENC  =      -161.58611936
  PAW double counting   =      1977.68276502    -1806.82050839
  entropy T*S    EENTRO =         0.00000000
  eigenvalues    EBANDS =      -424.09419443
  atomic energy  EATOM  =      3189.53368339
  Solvation  Ediel_sol  =         0.00000000
  ---------------------------------------------------
  free energy    TOTEN  =       -34.81708523 eV

  energy without entropy =      -34.81708523  energy(sigma->0) =      -34.81708523


--------------------------------------------------------------------------------------------------------




--------------------------------------- Iteration      1(   9)  ---------------------------------------


    POTLOK:  cpu time   51.0400: real time   51.3229
    SETDIJ:  cpu time    0.0520: real time    0.0518
     EDDAV:  cpu time   27.2400: real time   27.6068
 BZINTS: Fermi energy: -2.722156; 62.000000 electrons
         Band energy:-424.604614;  BLOECHL correction: -0.030167
       DOS:  cpu time    0.0040: real time    0.0072
    CHARGE:  cpu time    2.0160: real time    2.0874
    MIXING:  cpu time    0.0600: real time    0.0643
    --------------------------------------------
      LOOP:  cpu time   80.4120: real time   81.1404

 eigenvalue-minimisations  :  1184
 total energy-change (2. order) : 0.3639129E+00  (-0.1077556E+00)
 number of electron      61.9999993 magnetization       8.5178070
 augmentation part        3.1773394 magnetization       8.3617650

 Broyden mixing:
  rms(total) = 0.12556E+01    rms(broyden)= 0.12555E+01
  rms(prec ) = 0.12910E+01
  weight for this iteration     100.00

 eigenvalues of (default mixing * dielectric matrix)
  average eigenvalue GAMMA=   0.7257
  1.0260  1.0260  0.4254  0.4254

 Free energy of the ion-electron system (eV)
  ---------------------------------------------------
  alpha Z        PSCENC =        17.99564176
  Ewald energy   TEWEN  =      7529.91642125
  -Hartree energ DENC   =    -10355.29701998
  -exchange      EXHF   =         0.00000000
  -V(xc)+E(xc)   XCENC  =      -161.06258729
  PAW double counting   =      1964.43003829    -1795.36473523
  entropy T*S    EENTRO =         0.00000000
  eigenvalues    EBANDS =      -424.60461449
  atomic energy  EATOM  =      3189.53368339
  Solvation  Ediel_sol  =         0.00000000
  ---------------------------------------------------
  free energy    TOTEN  =       -34.45317229 eV

  energy without entropy =      -34.45317229  energy(sigma->0) =      -34.45317229


--------------------------------------------------------------------------------------------------------




--------------------------------------- Iteration      1(  10)  ---------------------------------------


    POTLOK:  cpu time   51.0520: real time   51.1900
    SETDIJ:  cpu time    0.0520: real time    0.0534
     EDDAV:  cpu time   27.5120: real time   27.7769
 BZINTS: Fermi energy: -2.735925; 62.000000 electrons
         Band energy:-420.555571;  BLOECHL correction: -0.039624
       DOS:  cpu time    0.0040: real time    0.0066
    CHARGE:  cpu time    2.0560: real time    2.0624
    MIXING:  cpu time    0.0440: real time    0.0437
    --------------------------------------------
      LOOP:  cpu time   80.7200: real time   81.1329

 eigenvalue-minimisations  :  1184
 total energy-change (2. order) :-0.2929750E+00  (-0.3591624E-01)
 number of electron      61.9999993 magnetization       7.3776331
 augmentation part        3.3402615 magnetization       7.8128270

 Broyden mixing:
  rms(total) = 0.12148E+01    rms(broyden)= 0.12147E+01
  rms(prec ) = 0.12578E+01
  weight for this iteration     100.00

 eigenvalues of (default mixing * dielectric matrix)
  average eigenvalue GAMMA=   0.9882
  1.7865  1.7865  0.4373  0.4373  0.4933

 Free energy of the ion-electron system (eV)
  ---------------------------------------------------
  alpha Z        PSCENC =        17.99564176
  Ewald energy   TEWEN  =      7529.91642125
  -Hartree energ DENC   =    -10360.76438395
  -exchange      EXHF   =         0.00000000
  -V(xc)+E(xc)   XCENC  =      -161.55713945
  PAW double counting   =      1982.96714130    -1812.28194013
  entropy T*S    EENTRO =         0.00000000
  eigenvalues    EBANDS =      -420.55557149
  atomic energy  EATOM  =      3189.53368339
  Solvation  Ediel_sol  =         0.00000000
  ---------------------------------------------------
  free energy    TOTEN  =       -34.74614732 eV

  energy without entropy =      -34.74614732  energy(sigma->0) =      -34.74614732


--------------------------------------------------------------------------------------------------------




--------------------------------------- Iteration      1(  11)  ---------------------------------------


    POTLOK:  cpu time   50.9240: real time   51.0129
    SETDIJ:  cpu time    0.0520: real time    0.0528
     EDDAV:  cpu time   31.7840: real time   32.0466
 BZINTS: Fermi energy: -2.557762; 62.000000 electrons
         Band energy:-413.615114;  BLOECHL correction: -0.028715
       DOS:  cpu time    0.0040: real time    0.0071
    CHARGE:  cpu time    2.1120: real time    2.1139
    MIXING:  cpu time    0.0440: real time    0.0430
    --------------------------------------------
      LOOP:  cpu time   84.9200: real time   85.2764

 eigenvalue-minimisations  :  1392
 total energy-change (2. order) :-0.1697089E+00  (-0.8906895E-01)
 number of electron      61.9999993 magnetization       6.5480775
 augmentation part        2.8956340 magnetization       6.7495864

 Broyden mixing:
  rms(total) = 0.85692E+00    rms(broyden)= 0.85691E+00
  rms(prec ) = 0.90200E+00
  weight for this iteration     100.00

 eigenvalues of (default mixing * dielectric matrix)
  average eigenvalue GAMMA=   0.8826
  1.8705  1.8705  0.4367  0.4367  0.5026  0.1790

 Free energy of the ion-electron system (eV)
  ---------------------------------------------------
  alpha Z        PSCENC =        17.99564176
  Ewald energy   TEWEN  =      7529.91642125
  -Hartree energ DENC   =    -10368.38649073
  -exchange      EXHF   =         0.00000000
  -V(xc)+E(xc)   XCENC  =      -161.75810630
  PAW double counting   =      2000.49031893    -1829.09221050
  entropy T*S    EENTRO =         0.00000000
  eigenvalues    EBANDS =      -413.61511400
  atomic energy  EATOM  =      3189.53368339
  Solvation  Ediel_sol  =         0.00000000
  ---------------------------------------------------
  free energy    TOTEN  =       -34.91585619 eV

  energy without entropy =      -34.91585619  energy(sigma->0) =      -34.91585619


--------------------------------------------------------------------------------------------------------




--------------------------------------- Iteration      1(  12)  ---------------------------------------


    POTLOK:  cpu time   50.3560: real time   51.0367
    SETDIJ:  cpu time    0.0520: real time    0.0509
     EDDAV:  cpu time   28.3480: real time   28.7046
 BZINTS: Fermi energy: -2.522128; 62.000000 electrons
         Band energy:-409.154442;  BLOECHL correction: -0.014281
       DOS:  cpu time    0.0080: real time    0.0053
    CHARGE:  cpu time    2.0320: real time    2.0680
    MIXING:  cpu time    0.0440: real time    0.0439
    --------------------------------------------
      LOOP:  cpu time   80.8400: real time   81.9094

 eigenvalue-minimisations  :  1232
 total energy-change (2. order) :-0.2470050E-01  (-0.1530749E+00)
 number of electron      61.9999994 magnetization       5.7325298
 augmentation part        2.7445794 magnetization       6.1631569

 Broyden mixing:
  rms(total) = 0.68053E+00    rms(broyden)= 0.68051E+00
  rms(prec ) = 0.70135E+00
  weight for this iteration     100.00

 eigenvalues of (default mixing * dielectric matrix)
  average eigenvalue GAMMA=   0.8879
  1.9787  1.9787  0.6309  0.6309  0.4299  0.4299  0.1363

 Free energy of the ion-electron system (eV)
  ---------------------------------------------------
  alpha Z        PSCENC =        17.99564176
  Ewald energy   TEWEN  =      7529.91642125
  -Hartree energ DENC   =    -10373.24695267
  -exchange      EXHF   =         0.00000000
  -V(xc)+E(xc)   XCENC  =      -161.79848399
  PAW double counting   =      2012.00833098    -1840.19475572
  entropy T*S    EENTRO =         0.00000000
  eigenvalues    EBANDS =      -409.15444170
  atomic energy  EATOM  =      3189.53368339
  Solvation  Ediel_sol  =         0.00000000
  ---------------------------------------------------
  free energy    TOTEN  =       -34.94055669 eV

  energy without entropy =      -34.94055669  energy(sigma->0) =      -34.94055669


--------------------------------------------------------------------------------------------------------




--------------------------------------- Iteration      1(  13)  ---------------------------------------


    POTLOK:  cpu time   50.8080: real time   51.1502
    SETDIJ:  cpu time    0.0520: real time    0.0507
     EDDAV:  cpu time   28.6880: real time   28.9727
 BZINTS: Fermi energy: -2.486853; 62.000000 electrons
         Band energy:-407.335962;  BLOECHL correction: -0.008695
       DOS:  cpu time    0.0040: real time    0.0049
    CHARGE:  cpu time    2.0640: real time    2.0677
    MIXING:  cpu time    0.0440: real time    0.0449
    --------------------------------------------
      LOOP:  cpu time   81.6600: real time   82.2911

 eigenvalue-minimisations  :  1248
 total energy-change (2. order) :-0.1795978E+00  (-0.3476428E-01)
 number of electron      61.9999994 magnetization       3.8603122
 augmentation part        2.8147627 magnetization       4.1763099

 Broyden mixing:
  rms(total) = 0.56445E+00    rms(broyden)= 0.56445E+00
  rms(prec ) = 0.58146E+00
  weight for this iteration     100.00

 eigenvalues of (default mixing * dielectric matrix)
  average eigenvalue GAMMA=   0.9794
  2.2090  2.2090  0.9056  0.9056  0.4339  0.4339  0.6066  0.1317

 Free energy of the ion-electron system (eV)
  ---------------------------------------------------
  alpha Z        PSCENC =        17.99564176
  Ewald energy   TEWEN  =      7529.91642125
  -Hartree energ DENC   =    -10374.79972735
  -exchange      EXHF   =         0.00000000
  -V(xc)+E(xc)   XCENC  =      -161.92887350
  PAW double counting   =      2016.25885113    -1844.76018925
  entropy T*S    EENTRO =         0.00000000
  eigenvalues    EBANDS =      -407.33596195
  atomic energy  EATOM  =      3189.53368339
  Solvation  Ediel_sol  =         0.00000000
  ---------------------------------------------------
  free energy    TOTEN  =       -35.12015450 eV

  energy without entropy =      -35.12015450  energy(sigma->0) =      -35.12015450


--------------------------------------------------------------------------------------------------------




--------------------------------------- Iteration      1(  14)  ---------------------------------------


    POTLOK:  cpu time   51.0480: real time   51.2696
    SETDIJ:  cpu time    0.0520: real time    0.0521
     EDDAV:  cpu time   31.0520: real time   31.2935
 BZINTS: Fermi energy: -2.333182; 62.000000 electrons
         Band energy:-400.957552;  BLOECHL correction:  0.000000
       DOS:  cpu time    0.0040: real time    0.0042
    CHARGE:  cpu time    1.8280: real time    2.0665
    MIXING:  cpu time    0.0520: real time    0.0495
    --------------------------------------------
      LOOP:  cpu time   84.0360: real time   84.7354

 eigenvalue-minimisations  :  1344
 total energy-change (2. order) :-0.2402935E+00  (-0.2717199E-01)
 number of electron      61.9999994 magnetization       2.4045641
 augmentation part        2.6655792 magnetization       2.4355517

 Broyden mixing:
  rms(total) = 0.28367E+00    rms(broyden)= 0.28366E+00
  rms(prec ) = 0.29502E+00
  weight for this iteration     100.00

 eigenvalues of (default mixing * dielectric matrix)
  average eigenvalue GAMMA=   1.0900
  2.4486  2.4486  1.6246  0.8442  0.8442  0.4337  0.4337  0.6012  0.1313

 Free energy of the ion-electron system (eV)
  ---------------------------------------------------
  alpha Z        PSCENC =        17.99564176
  Ewald energy   TEWEN  =      7529.91642125
  -Hartree energ DENC   =    -10381.08018572
  -exchange      EXHF   =         0.00000000
  -V(xc)+E(xc)   XCENC  =      -161.93384679
  PAW double counting   =      2028.36431797    -1857.19892796
  entropy T*S    EENTRO =         0.00000000
  eigenvalues    EBANDS =      -400.95755186
  atomic energy  EATOM  =      3189.53368339
  Solvation  Ediel_sol  =         0.00000000
  ---------------------------------------------------
  free energy    TOTEN  =       -35.36044796 eV

  energy without entropy =      -35.36044796  energy(sigma->0) =      -35.36044796


--------------------------------------------------------------------------------------------------------




--------------------------------------- Iteration      1(  15)  ---------------------------------------


    POTLOK:  cpu time   50.7200: real time   51.2414
    SETDIJ:  cpu time    0.0680: real time    0.0675
     EDDAV:  cpu time   28.3600: real time   28.5995
 BZINTS: Fermi energy: -2.311878; 62.000000 electrons
         Band energy:-400.347695;  BLOECHL correction:  0.000000
       DOS:  cpu time    0.0040: real time    0.0036
    CHARGE:  cpu time    2.0560: real time    2.0628
    MIXING:  cpu time    0.0480: real time    0.0466
    --------------------------------------------
      LOOP:  cpu time   81.2560: real time   82.0213

 eigenvalue-minimisations  :  1232
 total energy-change (2. order) :-0.4060165E+00  (-0.3468831E-01)
 number of electron      61.9999993 magnetization       1.4318445
 augmentation part        3.0324395 magnetization       1.4732714

 Broyden mixing:
  rms(total) = 0.42828E+00    rms(broyden)= 0.42827E+00
  rms(prec ) = 0.46693E+00
  weight for this iteration     100.00

 eigenvalues of (default mixing * dielectric matrix)
  average eigenvalue GAMMA=   1.1708
  2.6943  2.6943  2.1109  0.9938  0.9938  0.4335  0.4335  0.6636  0.5590  0.1313

 Free energy of the ion-electron system (eV)
  ---------------------------------------------------
  alpha Z        PSCENC =        17.99564176
  Ewald energy   TEWEN  =      7529.91642125
  -Hartree energ DENC   =    -10380.44779019
  -exchange      EXHF   =         0.00000000
  -V(xc)+E(xc)   XCENC  =      -162.16156303
  PAW double counting   =      2023.67664334    -1853.93180607
  entropy T*S    EENTRO =         0.00000000
  eigenvalues    EBANDS =      -400.34769490
  atomic energy  EATOM  =      3189.53368339
  Solvation  Ediel_sol  =         0.00000000
  ---------------------------------------------------
  free energy    TOTEN  =       -35.76646445 eV

  energy without entropy =      -35.76646445  energy(sigma->0) =      -35.76646445


--------------------------------------------------------------------------------------------------------




--------------------------------------- Iteration      1(  16)  ---------------------------------------


    POTLOK:  cpu time   50.8440: real time   51.1869
    SETDIJ:  cpu time    0.0520: real time    0.0509
     EDDAV:  cpu time   28.6920: real time   28.9147
 BZINTS: Fermi energy: -2.295646; 62.000000 electrons
         Band energy:-397.776196;  BLOECHL correction:  0.000000
       DOS:  cpu time    0.0000: real time    0.0040
    CHARGE:  cpu time    2.0400: real time    2.0419
    MIXING:  cpu time    0.0480: real time    0.0477
    --------------------------------------------
      LOOP:  cpu time   81.6760: real time   82.2461

 eigenvalue-minimisations  :  1248
 total energy-change (2. order) :-0.8729502E-01  (-0.9792402E-02)
 number of electron      61.9999993 magnetization       0.7417112
 augmentation part        2.9822932 magnetization       0.9308239

 Broyden mixing:
  rms(total) = 0.39474E+00    rms(broyden)= 0.39474E+00
  rms(prec ) = 0.42747E+00
  weight for this iteration     100.00

 eigenvalues of (default mixing * dielectric matrix)
  average eigenvalue GAMMA=   1.3013
  4.1230  2.5239  1.8262  1.8262  0.8928  0.8928  0.4334  0.4334  0.6384  0.5925
  0.1313

 Free energy of the ion-electron system (eV)
  ---------------------------------------------------
  alpha Z        PSCENC =        17.99564176
  Ewald energy   TEWEN  =      7529.91642125
  -Hartree energ DENC   =    -10382.65894068
  -exchange      EXHF   =         0.00000000
  -V(xc)+E(xc)   XCENC  =      -162.22254472
  PAW double counting   =      2024.33344290    -1854.97526728
  entropy T*S    EENTRO =         0.00000000
  eigenvalues    EBANDS =      -397.77619610
  atomic energy  EATOM  =      3189.53368339
  Solvation  Ediel_sol  =         0.00000000
  ---------------------------------------------------
  free energy    TOTEN  =       -35.85375948 eV

  energy without entropy =      -35.85375948  energy(sigma->0) =      -35.85375948


--------------------------------------------------------------------------------------------------------




--------------------------------------- Iteration      1(  17)  ---------------------------------------


    POTLOK:  cpu time   50.6440: real time   50.9615
    SETDIJ:  cpu time    0.0520: real time    0.0513
     EDDAV:  cpu time   28.2800: real time   28.6374
 BZINTS: Fermi energy: -2.284262; 62.000000 electrons
         Band energy:-394.443719;  BLOECHL correction:  0.000000
       DOS:  cpu time    0.0000: real time    0.0035
    CHARGE:  cpu time    2.0520: real time    2.0515
    MIXING:  cpu time    0.0480: real time    0.0489
    --------------------------------------------
      LOOP:  cpu time   81.0760: real time   81.7541

 eigenvalue-minimisations  :  1232
 total energy-change (2. order) : 0.4761334E-01  (-0.9642667E-02)
 number of electron      61.9999994 magnetization       0.4757128
 augmentation part        2.7107425 magnetization       0.7249279

 Broyden mixing:
  rms(total) = 0.22706E+00    rms(broyden)= 0.22705E+00
  rms(prec ) = 0.24016E+00
  weight for this iteration     100.00

 eigenvalues of (default mixing * dielectric matrix)
  average eigenvalue GAMMA=   1.3793
  5.4602  2.6048  1.8565  1.8565  0.9218  0.9218  0.4334  0.4334  0.6910  0.6910
  0.5498  0.1313

 Free energy of the ion-electron system (eV)
  ---------------------------------------------------
  alpha Z        PSCENC =        17.99564176
  Ewald energy   TEWEN  =      7529.91642125
  -Hartree energ DENC   =    -10386.23158857
  -exchange      EXHF   =         0.00000000
  -V(xc)+E(xc)   XCENC  =      -162.15977461
  PAW double counting   =      2029.37105665    -1859.78786651
  entropy T*S    EENTRO =         0.00000000
  eigenvalues    EBANDS =      -394.44371949
  atomic energy  EATOM  =      3189.53368339
  Solvation  Ediel_sol  =         0.00000000
  ---------------------------------------------------
  free energy    TOTEN  =       -35.80614613 eV

  energy without entropy =      -35.80614613  energy(sigma->0) =      -35.80614613


--------------------------------------------------------------------------------------------------------




--------------------------------------- Iteration      1(  18)  ---------------------------------------


    POTLOK:  cpu time   50.9040: real time   51.1544
    SETDIJ:  cpu time    0.0720: real time    0.0752
     EDDAV:  cpu time   30.6160: real time   30.9234
 BZINTS: Fermi energy: -2.285664; 62.000000 electrons
         Band energy:-393.166136;  BLOECHL correction:  0.000000
       DOS:  cpu time    0.0040: real time    0.0039
    CHARGE:  cpu time    2.0560: real time    2.0849
    MIXING:  cpu time    0.0480: real time    0.0494
    --------------------------------------------
      LOOP:  cpu time   83.7000: real time   84.2913

 eigenvalue-minimisations  :  1344
 total energy-change (2. order) :-0.1839490E-02  (-0.5011090E-02)
 number of electron      61.9999994 magnetization       0.0007250
 augmentation part        2.5454440 magnetization       0.1883112

 Broyden mixing:
  rms(total) = 0.12731E+00    rms(broyden)= 0.12730E+00
  rms(prec ) = 0.13067E+00
  weight for this iteration     100.00

 eigenvalues of (default mixing * dielectric matrix)
  average eigenvalue GAMMA=   1.5010
  6.7733  2.4601  2.0921  2.0921  1.1625  1.1625  0.7917  0.7917  0.4334  0.4334
  0.6146  0.5735  0.1313

 Free energy of the ion-electron system (eV)
  ---------------------------------------------------
  alpha Z        PSCENC =        17.99564176
  Ewald energy   TEWEN  =      7529.91642125
  -Hartree energ DENC   =    -10387.78312096
  -exchange      EXHF   =         0.00000000
  -V(xc)+E(xc)   XCENC  =      -162.12995707
  PAW double counting   =      2032.22075528    -1862.39527359
  entropy T*S    EENTRO =         0.00000000
  eigenvalues    EBANDS =      -393.16613569
  atomic energy  EATOM  =      3189.53368339
  Solvation  Ediel_sol  =         0.00000000
  ---------------------------------------------------
  free energy    TOTEN  =       -35.80798562 eV

  energy without entropy =      -35.80798562  energy(sigma->0) =      -35.80798562


--------------------------------------------------------------------------------------------------------




--------------------------------------- Iteration      1(  19)  ---------------------------------------


    POTLOK:  cpu time   50.8360: real time   51.0016
    SETDIJ:  cpu time    0.0520: real time    0.0517
     EDDAV:  cpu time   26.1560: real time   26.3089
 BZINTS: Fermi energy: -2.272861; 62.000000 electrons
         Band energy:-391.429758;  BLOECHL correction:  0.000000
       DOS:  cpu time    0.0000: real time    0.0036
    CHARGE:  cpu time    2.0480: real time    2.0484
    MIXING:  cpu time    0.0480: real time    0.0508
    --------------------------------------------
      LOOP:  cpu time   79.1400: real time   79.4650

 eigenvalue-minimisations  :  1120
 total energy-change (2. order) :-0.1910093E-01  (-0.7366102E-02)
 number of electron      61.9999994 magnetization       0.0163674
 augmentation part        2.3438823 magnetization       0.0511989

 Broyden mixing:
  rms(total) = 0.73549E-01    rms(broyden)= 0.73533E-01
  rms(prec ) = 0.81381E-01
  weight for this iteration     100.00

 eigenvalues of (default mixing * dielectric matrix)
  average eigenvalue GAMMA=   1.5227
  7.1056  2.6436  2.0752  2.0752  1.2974  1.2974  0.9738  0.9738  0.4334  0.4334
  0.6956  0.6251  0.5568  0.1313

 Free energy of the ion-electron system (eV)
  ---------------------------------------------------
  alpha Z        PSCENC =        17.99564176
  Ewald energy   TEWEN  =      7529.91642125
  -Hartree energ DENC   =    -10389.93413933
  -exchange      EXHF   =         0.00000000
  -V(xc)+E(xc)   XCENC  =      -162.07616807
  PAW double counting   =      2036.85922376    -1866.69199100
  entropy T*S    EENTRO =         0.00000000
  eigenvalues    EBANDS =      -391.42975831
  atomic energy  EATOM  =      3189.53368339
  Solvation  Ediel_sol  =         0.00000000
  ---------------------------------------------------
  free energy    TOTEN  =       -35.82708655 eV

  energy without entropy =      -35.82708655  energy(sigma->0) =      -35.82708655


--------------------------------------------------------------------------------------------------------




--------------------------------------- Iteration      1(  20)  ---------------------------------------


    POTLOK:  cpu time   50.8040: real time   51.0317
    SETDIJ:  cpu time    0.0520: real time    0.0532
     EDDAV:  cpu time   24.8000: real time   25.0301
 BZINTS: Fermi energy: -2.327157; 62.000000 electrons
         Band energy:-392.407856;  BLOECHL correction:  0.000000
       DOS:  cpu time    0.0000: real time    0.0036
    CHARGE:  cpu time    2.0720: real time    2.0862
    MIXING:  cpu time    0.0680: real time    0.0669
    --------------------------------------------
      LOOP:  cpu time   77.7960: real time   78.2716

 eigenvalue-minimisations  :  1056
 total energy-change (2. order) : 0.1043714E-02  (-0.2706517E-02)
 number of electron      61.9999994 magnetization      -0.0114933
 augmentation part        2.4628252 magnetization      -0.0137444

 Broyden mixing:
  rms(total) = 0.11419E-01    rms(broyden)= 0.11397E-01
  rms(prec ) = 0.13496E-01
  weight for this iteration     100.00

 eigenvalues of (default mixing * dielectric matrix)
  average eigenvalue GAMMA=   1.5147
  7.3879  2.8161  2.0634  2.0634  1.4063  1.4063  0.9683  0.9683  0.4334  0.4334
  0.7765  0.6603  0.6434  0.5619  0.1313

 Free energy of the ion-electron system (eV)
  ---------------------------------------------------
  alpha Z        PSCENC =        17.99564176
  Ewald energy   TEWEN  =      7529.91642125
  -Hartree energ DENC   =    -10388.77411710
  -exchange      EXHF   =         0.00000000
  -V(xc)+E(xc)   XCENC  =      -162.11955286
  PAW double counting   =      2035.28225087    -1865.25251400
  entropy T*S    EENTRO =         0.00000000
  eigenvalues    EBANDS =      -392.40785615
  atomic energy  EATOM  =      3189.53368339
  Solvation  Ediel_sol  =         0.00000000
  ---------------------------------------------------
  free energy    TOTEN  =       -35.82604283 eV

  energy without entropy =      -35.82604283  energy(sigma->0) =      -35.82604283


--------------------------------------------------------------------------------------------------------




--------------------------------------- Iteration      1(  21)  ---------------------------------------


    POTLOK:  cpu time   50.9200: real time   51.4493
    SETDIJ:  cpu time    0.0360: real time    0.0448
     EDDAV:  cpu time   26.6600: real time   26.7750
 BZINTS: Fermi energy: -2.271637; 62.000000 electrons
         Band energy:-392.109289;  BLOECHL correction:  0.000000
       DOS:  cpu time    0.0040: real time    0.0033
    CHARGE:  cpu time    2.0160: real time    2.0388
    MIXING:  cpu time    0.0600: real time    0.0592
    --------------------------------------------
      LOOP:  cpu time   79.6960: real time   80.3703

 eigenvalue-minimisations  :  1120
 total energy-change (2. order) :-0.4726361E-03  (-0.1715932E-03)
 number of electron      61.9999994 magnetization       0.0067415
 augmentation part        2.4501221 magnetization       0.0127363

 Broyden mixing:
  rms(total) = 0.42850E-02    rms(broyden)= 0.42838E-02
  rms(prec ) = 0.62904E-02
  weight for this iteration     100.00

 eigenvalues of (default mixing * dielectric matrix)
  average eigenvalue GAMMA=   1.4890
  7.3199  3.0188  2.0789  2.0789  1.4922  1.4922  1.0136  1.0136  0.4334  0.4334
  0.1313  0.7778  0.7778  0.6303  0.5917  0.5408

 Free energy of the ion-electron system (eV)
  ---------------------------------------------------
  alpha Z        PSCENC =        17.99564176
  Ewald energy   TEWEN  =      7529.91642125
  -Hartree energ DENC   =    -10389.12718863
  -exchange      EXHF   =         0.00000000
  -V(xc)+E(xc)   XCENC  =      -162.11852218
  PAW double counting   =      2035.97139845    -1865.88866019
  entropy T*S    EENTRO =         0.00000000
  eigenvalues    EBANDS =      -392.10928933
  atomic energy  EATOM  =      3189.53368339
  Solvation  Ediel_sol  =         0.00000000
  ---------------------------------------------------
  free energy    TOTEN  =       -35.82651547 eV

  energy without entropy =      -35.82651547  energy(sigma->0) =      -35.82651547


--------------------------------------------------------------------------------------------------------




--------------------------------------- Iteration      1(  22)  ---------------------------------------


    POTLOK:  cpu time   51.0040: real time   51.6945
    SETDIJ:  cpu time    0.0520: real time    0.0512
     EDDAV:  cpu time   22.7000: real time   23.0738
 BZINTS: Fermi energy: -2.268113; 62.000000 electrons
         Band energy:-391.973540;  BLOECHL correction:  0.000000
       DOS:  cpu time    0.0040: real time    0.0036
    CHARGE:  cpu time    2.0440: real time    2.0474
    MIXING:  cpu time    0.0560: real time    0.0548
    --------------------------------------------
      LOOP:  cpu time   75.8600: real time   76.9253

 eigenvalue-minimisations  :   944
 total energy-change (2. order) :-0.3231128E-03  (-0.2761256E-04)
 number of electron      61.9999994 magnetization      -0.0092097
 augmentation part        2.4553515 magnetization      -0.0020935

 Broyden mixing:
  rms(total) = 0.57799E-02    rms(broyden)= 0.57798E-02
  rms(prec ) = 0.73868E-02
  weight for this iteration     100.00

 eigenvalues of (default mixing * dielectric matrix)
  average eigenvalue GAMMA=   1.4944
  7.4698  2.6388  2.0604  2.0604  2.2419  1.3128  1.3128  0.9802  0.9802  0.4334
  0.4334  0.1313  0.8542  0.6709  0.6709  0.5660  0.5865

 Free energy of the ion-electron system (eV)
  ---------------------------------------------------
  alpha Z        PSCENC =        17.99564176
  Ewald energy   TEWEN  =      7529.91642125
  -Hartree energ DENC   =    -10389.24674252
  -exchange      EXHF   =         0.00000000
  -V(xc)+E(xc)   XCENC  =      -162.12386217
[...]
     34      -0.6721      0.00000
     35      -0.3611      0.00000
     36       0.3662      0.00000
     37       0.5223      0.00000
     38       1.5225      0.00000
     39       1.5676      0.00000
     40       2.1445      0.00000
     41       2.3529      0.00000
     42       2.4306      0.00000
     43       2.7584      0.00000
     44       2.9708      0.00000
     45       3.1026      0.00000
     46       3.5299      0.00000
     47       3.7979      0.00000
     48       4.0973      0.00000

 k-point     5 :      -0.4000    0.2000    0.0000
  band No.  band energies     occupation 
      1     -14.0322      1.00000
      2     -13.5897      1.00000
      3     -13.1871      1.00000
      4     -13.0108      1.00000
      5     -12.7392      1.00000
      6     -12.5927      1.00000
      7      -9.8433      1.00000
      8      -8.2171      1.00000
      9      -6.5408      1.00000
     10      -6.0525      1.00000
     11      -5.9318      1.00000
     12      -5.4498      1.00000
     13      -5.1476      1.00000
     14      -4.8878      1.00000
     15      -4.6779      1.00000
     16      -4.3467      1.00000
     17      -4.3178      1.00000
     18      -4.1694      1.00000
     19      -4.1564      1.00000
     20      -3.8565      1.00000
     21      -3.8553      1.00000
     22      -3.2601      1.00000
     23      -3.0651      1.00000
     24      -2.8818      1.00000
     25      -2.7495      1.00000
     26      -2.5500      1.00000
     27      -2.4675      1.00000
     28      -2.3027      1.00000
     29      -2.2861      1.00000
     30      -2.2532      1.00000
     31      -2.2266      1.00000
     32      -1.0345      0.00000
     33      -0.9065      0.00000
     34      -0.7592      0.00000
     35      -0.2906      0.00000
     36      -0.1548      0.00000
     37       0.4440      0.00000
     38       0.9788      0.00000
     39       1.3677      0.00000
     40       1.8586      0.00000
     41       2.0948      0.00000
     42       2.3229      0.00000
     43       3.0920      0.00000
     44       3.2628      0.00000
     45       3.2816      0.00000
     46       3.4594      0.00000
     47       3.5354      0.00000
     48       4.2149      0.00000


--------------------------------------------------------------------------------------------------------


 soft charge-density along one line, spin component           1
         0         1         2         3         4         5         6         7         8         9
 total charge-density along one line

 soft charge-density along one line, spin component           2
         0         1         2         3         4         5         6         7         8         9
 total charge-density along one line

 pseudopotential strength for first ion, spin component:           1
 -9.446  -0.083  -0.000   0.002   0.000   0.669   0.029   0.000
 -0.083  -9.506   0.000   0.000   0.002   0.029   0.690  -0.000
 -0.000   0.000  -9.365   0.000   0.000   0.000  -0.000   0.640
  0.002   0.000   0.000  -9.506   0.083  -0.001  -0.000  -0.000
  0.000   0.002   0.000   0.083  -9.446  -0.000  -0.001  -0.000
  0.669   0.029   0.000  -0.001  -0.000   0.785  -0.011  -0.000
  0.029   0.690  -0.000  -0.000  -0.001  -0.011   0.777   0.000
  0.000  -0.000   0.640  -0.000  -0.000  -0.000   0.000   0.796
 -0.001  -0.000  -0.000   0.690  -0.029   0.000   0.000   0.000
 -0.000  -0.001  -0.000  -0.029   0.669   0.000   0.000   0.000
 -0.000  -0.000  -0.001  -0.000   0.000  -0.000  -0.000   0.001
  0.000   0.000   0.000   0.000  -0.000  -0.000  -0.000  -0.000
 -0.000  -0.001   0.000  -0.000   0.001   0.000   0.000  -0.000
 -0.000  -0.000  -0.000  -0.000   0.000  -0.000   0.000   0.000
  0.001  -0.000   0.000  -0.001   0.000  -0.000  -0.000  -0.000
  0.000   0.000  -0.000   0.000  -0.001  -0.000  -0.000   0.000
  0.000   0.000  -0.000   0.000  -0.000  -0.000  -0.000   0.000
 -0.001   0.000  -0.000   0.000  -0.000   0.000  -0.000   0.000
 pseudopotential strength for first ion, spin component:           2
 -9.446  -0.083  -0.000   0.002   0.000   0.669   0.029   0.000
 -0.083  -9.506   0.000   0.000   0.002   0.029   0.690  -0.000
 -0.000   0.000  -9.365   0.000   0.000   0.000  -0.000   0.640
  0.002   0.000   0.000  -9.506   0.083  -0.001  -0.000  -0.000
  0.000   0.002   0.000   0.083  -9.446  -0.000  -0.001  -0.000
  0.669   0.029   0.000  -0.001  -0.000   0.785  -0.011  -0.000
  0.029   0.690  -0.000  -0.000  -0.001  -0.011   0.777   0.000
  0.000  -0.000   0.640  -0.000  -0.000  -0.000   0.000   0.796
 -0.001  -0.000  -0.000   0.690  -0.029   0.000   0.000   0.000
 -0.000  -0.001  -0.000  -0.029   0.669   0.000   0.000   0.000
 -0.000  -0.000  -0.001  -0.000   0.000  -0.000  -0.000   0.001
  0.000   0.000   0.000   0.000  -0.000  -0.000  -0.000  -0.000
 -0.000  -0.001   0.000  -0.000   0.001   0.000   0.000  -0.000
 -0.000  -0.000  -0.000  -0.000   0.000  -0.000   0.000   0.000
  0.001  -0.000   0.000  -0.001   0.000  -0.000  -0.000  -0.000
  0.000   0.000  -0.000   0.000  -0.001  -0.000  -0.000   0.000
  0.000   0.000  -0.000   0.000  -0.000  -0.000  -0.000   0.000
 -0.001   0.000  -0.000   0.000  -0.000   0.000  -0.000   0.000
 total augmentation occupancy for first ion, spin component:           1
  1.679  -0.282   0.000   0.007  -0.000   0.102   0.123   0.000  -0.002   0.000  -0.000  -0.000  -0.003   0.000   0.013   0.000
 -0.282   1.452  -0.000  -0.000   0.007   0.124   0.205   0.000   0.000  -0.002   0.000   0.000  -0.004   0.000   0.006   0.001
  0.000  -0.000   1.916  -0.000  -0.000   0.000   0.000  -0.007   0.000  -0.000  -0.004  -0.001  -0.000   0.001   0.000   0.000
  0.007  -0.000  -0.000   1.452   0.282  -0.002  -0.000   0.000   0.205  -0.124   0.000   0.000  -0.006   0.000  -0.004   0.000
 -0.000   0.007  -0.000   0.282   1.679  -0.000  -0.002  -0.000  -0.123   0.102   0.000   0.000   0.013  -0.000   0.003  -0.000
  0.102   0.124   0.000  -0.002  -0.000   0.064   0.036   0.000  -0.000  -0.000   0.000  -0.000  -0.000   0.000   0.011   0.000
  0.123   0.205   0.000  -0.000  -0.002   0.036   0.100   0.000  -0.000  -0.000   0.000  -0.000   0.000   0.000  -0.003   0.000
  0.000   0.000  -0.007   0.000  -0.000   0.000   0.000   0.054   0.000  -0.000   0.006  -0.006  -0.000   0.001   0.000   0.000
 -0.002   0.000   0.000   0.205  -0.123  -0.000  -0.000   0.000   0.100  -0.036   0.000   0.000   0.003  -0.000   0.000  -0.000
  0.000  -0.002  -0.000  -0.124   0.102  -0.000  -0.000  -0.000  -0.036   0.064  -0.000   0.000   0.011  -0.000   0.000  -0.002
 -0.000   0.000  -0.004   0.000   0.000   0.000   0.000   0.006   0.000  -0.000   1.028  -0.271   0.000  -0.003   0.000   0.000
 -0.000  -0.000  -0.001   0.000   0.000  -0.000   0.000  -0.006   0.000   0.000  -0.271   0.121  -0.000   0.000   0.000   0.000
 -0.003  -0.004  -0.000  -0.006   0.013  -0.000   0.000  -0.000   0.003   0.011  -0.000  -0.000   0.181  -0.000  -0.000  -0.012
  0.000   0.000   0.001   0.000  -0.000   0.000   0.000   0.001  -0.000  -0.000  -0.003   0.000  -0.000   0.179   0.000   0.000
  0.013   0.006   0.000  -0.004   0.003   0.011  -0.003   0.000   0.000   0.000   0.000   0.000  -0.000   0.000   0.181   0.000
  0.000   0.001   0.000   0.000  -0.000   0.000   0.000   0.000  -0.000  -0.002   0.000   0.000  -0.012   0.000   0.000   0.001
  0.000  -0.000   0.001   0.000  -0.000  -0.000   0.000  -0.000   0.000   0.000   0.000  -0.000   0.000  -0.013  -0.000  -0.000
 -0.000  -0.000  -0.000   0.001  -0.000  -0.002   0.000  -0.000   0.000  -0.000   0.000  -0.000  -0.000  -0.000  -0.012  -0.000
 total augmentation occupancy for first ion, spin component:           2
 -0.000  -0.000  -0.000  -0.000  -0.000   0.000  -0.000   0.000  -0.000  -0.000  -0.000  -0.000   0.000   0.000   0.000  -0.000
 -0.000  -0.000  -0.000   0.000  -0.000  -0.000   0.000  -0.000  -0.000  -0.000   0.000  -0.000   0.000   0.000   0.000   0.000
 -0.000  -0.000  -0.000  -0.000   0.000   0.000  -0.000   0.000  -0.000  -0.000  -0.000  -0.000  -0.000   0.000   0.000   0.000
 -0.000   0.000  -0.000  -0.000   0.000  -0.000   0.000  -0.000   0.000   0.000  -0.000  -0.000  -0.000  -0.000   0.000  -0.000
  0.000  -0.000   0.000   0.000  -0.000   0.000  -0.000  -0.000   0.000   0.000   0.000   0.000   0.000  -0.000  -0.000  -0.000
  0.000  -0.000   0.000  -0.000   0.000   0.000   0.000   0.000  -0.000  -0.000  -0.000   0.000  -0.000   0.000   0.000   0.000
 -0.000   0.000  -0.000   0.000  -0.000   0.000   0.000   0.000  -0.000  -0.000   0.000   0.000   0.000   0.000  -0.000   0.000
  0.000  -0.000   0.000  -0.000  -0.000   0.000   0.000   0.000   0.000  -0.000  -0.000   0.000  -0.000   0.000   0.000   0.000
 -0.000  -0.000  -0.000   0.000   0.000  -0.000  -0.000   0.000   0.000  -0.000  -0.000   0.000   0.000   0.000   0.000   0.000
 -0.000  -0.000  -0.000   0.000   0.000   0.000  -0.000  -0.000  -0.000   0.000   0.000  -0.000   0.000  -0.000   0.000  -0.000
 -0.000   0.000  -0.000  -0.000   0.000  -0.000   0.000  -0.000  -0.000   0.000  -0.000  -0.000   0.000   0.000   0.000   0.000
 -0.000  -0.000  -0.000  -0.000   0.000   0.000   0.000   0.000   0.000  -0.000  -0.000   0.000   0.000   0.000   0.000   0.000
  0.000   0.000  -0.000  -0.000   0.000  -0.000   0.000  -0.000   0.000   0.000   0.000   0.000   0.000   0.000  -0.000  -0.000
  0.000   0.000   0.000  -0.000  -0.000   0.000  -0.000   0.000   0.000  -0.000   0.000   0.000   0.000  -0.000  -0.000   0.000
  0.000   0.000   0.000   0.000  -0.000   0.000  -0.000   0.000   0.000   0.000   0.000   0.000  -0.000  -0.000   0.000  -0.000
 -0.000   0.000   0.000  -0.000  -0.000   0.000   0.000   0.000   0.000  -0.000   0.000   0.000  -0.000   0.000  -0.000   0.000
  0.000   0.000   0.000  -0.000  -0.000   0.000  -0.000   0.000  -0.000  -0.000  -0.000  -0.000   0.000  -0.000  -0.000  -0.000
 -0.000   0.000  -0.000   0.000   0.000  -0.000  -0.000  -0.000   0.000  -0.000  -0.000  -0.000   0.000  -0.000  -0.000  -0.000


------------------------ aborting loop because EDIFF is reached ----------------------------------------





 total charge     

# of ion       s       p       d       tot
------------------------------------------
    1        0.364   0.406   7.402   8.172
    2        0.364   0.406   7.402   8.172
    3        1.164   1.251   0.087   2.502
    4        0.781   0.864   0.000   1.645
    5        1.394   1.925   0.048   3.368
    6        1.387   1.952   0.049   3.387
    7        1.393   1.932   0.048   3.373
    8        1.396   1.926   0.047   3.369
    9        1.389   1.951   0.047   3.387
   10        1.395   1.931   0.047   3.374
--------------------------------------------------
tot         11.028  14.544  15.178  40.750



 magnetization (x)

# of ion       s       p       d       tot
------------------------------------------
    1        0.000  -0.000   0.000   0.000
    2        0.000   0.000   0.000   0.000
    3       -0.000  -0.000  -0.000  -0.000
    4       -0.000  -0.000   0.000  -0.000
    5       -0.000  -0.000  -0.000  -0.000
    6       -0.000  -0.000  -0.000  -0.000
    7       -0.000  -0.000  -0.000  -0.000
    8       -0.000  -0.000  -0.000  -0.000
    9       -0.000  -0.000  -0.000  -0.000
   10       -0.000  -0.000  -0.000  -0.000
--------------------------------------------------
tot          0.000  -0.000   0.000   0.000

    CHARGE:  cpu time    2.0160: real time    2.0575
    FORLOC:  cpu time    0.0600: real time    0.0595
    FORNL :  cpu time    6.7680: real time    6.8066
    STRESS:  cpu time   20.2280: real time   20.4117
    FORCOR:  cpu time   51.2840: real time   51.4348
    FORHAR:  cpu time    0.3320: real time    0.3370
    MIXING:  cpu time    0.0440: real time    0.0444
    OFIELD:  cpu time    0.0000: real time    0.0001

  FORCE on cell =-STRESS in cart. coord.  units (eV):
  Direction    XX          YY          ZZ          XY          YZ          ZX
  --------------------------------------------------------------------------------------
  Alpha Z    20.78681    20.78681    20.78681
  Ewald    8717.85597  8717.85357-10589.35974    -0.00202    -0.00056    -0.00102
  Hartree  9280.35349  9280.35444 -8834.79187    -0.00031     0.00008     0.00014
  E(xc)    -263.33294  -263.33295  -262.89834     0.00005     0.00001     0.00002
  Local  -18857.53052-18857.52997 18533.34021     0.00203     0.00037     0.00070
  n-local   655.83853   655.47312   662.64365    -0.27182     1.17189     1.41834
  augment   -67.76391   -67.76377   -73.74884     0.00010     0.00003     0.00005
  Kinetic   516.97539   511.22375   544.15211    -3.69648     1.10286     1.34077
  Fock        0.00000     0.00000     0.00000     0.00000     0.00000     0.00000
  -------------------------------------------------------------------------------------
  Total       0.12391     0.12391     0.12400     0.00000     0.00000     0.00000
  in kB       0.23670     0.23670     0.23687     0.00000     0.00000     0.00000
  external pressure =        0.24 kB  Pullay stress =        0.00 kB


 VOLUME and BASIS-vectors are now :
 -----------------------------------------------------------------------------
  energy-cutoff  :      520.00
  volume of cell :      838.74
      direct lattice vectors                 reciprocal lattice vectors
     6.751888555 -0.000000223  0.000000000     0.148106707 -0.085509447 -0.000000000
     3.375944007  5.847306562 -0.000000000     0.000000006  0.171018908  0.000000000
     0.000000000 -0.000000000 21.244584420    -0.000000000  0.000000000  0.047070820

  length of vectors
     6.751888555  6.751888030 21.244584420     0.171018894  0.171018908  0.047070820


 FORCES acting on ions
    electron-ion (+dipol)            ewald-force                    non-local-force                 convergence-correction
 -----------------------------------------------------------------------------------------------
   0.221E-03 0.122E-03 0.450E+01   0.621E-03 0.374E-03 -.475E+01   0.137E-18 -.121E-18 0.229E+00   -.121E-06 0.219E-07 0.123E-02
   -.215E-03 -.111E-03 0.222E+01   -.626E-03 -.377E-03 -.242E+01   0.279E-16 -.996E-19 0.188E+00   0.649E-07 0.112E-06 0.125E-02
   -.368E-04 -.255E-04 0.187E+03   -.146E-03 -.809E-04 -.184E+03   -.154E-16 -.556E-17 -.260E+01   -.202E-08 -.157E-08 0.157E-01
   0.430E-04 0.134E-04 -.206E+03   0.157E-03 0.868E-04 0.202E+03   0.233E-16 0.117E-16 0.410E+01   0.475E-08 0.227E-08 -.126E-01
   -.270E+02 0.176E+00 -.407E+03   0.225E+02 -.170E+00 0.412E+03   0.402E+01 -.174E-01 -.513E+01   -.253E-02 -.224E-03 -.339E-01
   0.137E+02 0.233E+02 -.407E+03   -.114E+02 -.194E+02 0.412E+03   -.202E+01 -.347E+01 -.513E+01   0.107E-02 0.230E-02 -.339E-01
   0.134E+02 -.235E+02 -.407E+03   -.111E+02 0.196E+02 0.412E+03   -.199E+01 0.349E+01 -.513E+01   0.146E-02 -.208E-02 -.339E-01
   0.293E+02 -.179E+00 0.410E+03   -.250E+02 0.174E+00 -.416E+03   -.329E+01 0.159E-01 0.530E+01   0.587E-02 -.204E-03 0.361E-01
   -.148E+02 -.253E+02 0.410E+03   0.127E+02 0.216E+02 -.416E+03   0.166E+01 0.284E+01 0.530E+01   -.311E-02 -.498E-02 0.361E-01
   -.145E+02 0.255E+02 0.410E+03   0.124E+02 -.217E+02 -.416E+03   0.163E+01 -.286E+01 0.530E+01   -.276E-02 0.518E-02 0.361E-01
 -----------------------------------------------------------------------------------------------
   0.243E-04 0.550E-04 -.245E+01   0.000E+00 -.711E-14 0.114E-12   0.000E+00 0.000E+00 0.244E+01   -.404E-07 0.136E-06 0.124E-01


 POSITION                                       TOTAL-FORCE (eV/Angst)
 -----------------------------------------------------------------------------------
      3.37594      1.94910     10.61416        -0.000000      0.000000     -0.023202
      6.75189      3.89821     10.61752        -0.000000      0.000000     -0.018685
      0.00000     -0.00000      9.52216        -0.000000     -0.000000      0.061480
      0.00000     -0.00000     11.85252        -0.000000     -0.000000      0.051445
      4.23051      0.00246     12.18912        -0.493206     -0.010969      0.025445
      1.26282      2.18236     12.18912         0.237103      0.432614      0.025445
      4.63451      3.66250     12.18912         0.256103     -0.421644      0.025445
      5.89732      5.84485      9.05546         1.018729      0.010339     -0.049125
      8.86501      3.66495      9.05546        -0.500411     -0.887415     -0.049125
      5.49332      2.18481      9.05546        -0.518319      0.877076     -0.049125
 -----------------------------------------------------------------------------------
    total drift:                                0.000024      0.000055      0.001587


--------------------------------------------------------------------------------------------------------



  FREE ENERGIE OF THE ION-ELECTRON SYSTEM (eV)
  ---------------------------------------------------
  free  energy   TOTEN  =       -36.59692650 eV

  energy  without entropy=      -36.59692650  energy(sigma->0) =      -36.59692650

 d Force = 0.5250115E-02[ 0.152E-02, 0.898E-02]  d Energy = 0.3373540E-02 0.188E-02
 d Force = 0.5818719E+01[ 0.586E+01, 0.578E+01]  d Ewald  = 0.5330380E+02-0.475E+02


--------------------------------------------------------------------------------------------------------


    POTLOK:  cpu time   51.0960: real time   51.4478


--------------------------------------------------------------------------------------------------------




--------------------------------------------------------------------------------------------------------


  
 reached required accuracy - stopping structural energy minimisation
     LOOP+:  cpu time  827.9920: real time  835.6266
    4ORBIT:  cpu time    0.0000: real time    0.0000



 total charge     

# of ion       s       p       d       tot
------------------------------------------
    1        0.364   0.406   7.402   8.172
    2        0.364   0.406   7.402   8.172
    3        1.164   1.251   0.087   2.502
    4        0.781   0.864   0.000   1.645
    5        1.394   1.925   0.048   3.368
    6        1.387   1.952   0.049   3.387
    7        1.393   1.932   0.048   3.373
    8        1.396   1.926   0.047   3.369
    9        1.389   1.951   0.047   3.387
   10        1.395   1.931   0.047   3.374
--------------------------------------------------
tot         11.028  14.544  15.178  40.750



 magnetization (x)

# of ion       s       p       d       tot
------------------------------------------
    1        0.000  -0.000   0.000   0.000
    2        0.000   0.000   0.000   0.000
    3       -0.000  -0.000  -0.000  -0.000
    4       -0.000  -0.000   0.000  -0.000
    5       -0.000  -0.000  -0.000  -0.000
    6       -0.000  -0.000  -0.000  -0.000
    7       -0.000  -0.000  -0.000  -0.000
    8       -0.000  -0.000  -0.000  -0.000
    9       -0.000  -0.000  -0.000  -0.000
   10       -0.000  -0.000  -0.000  -0.000
--------------------------------------------------
tot          0.000  -0.000   0.000   0.000

 BZINTS: Fermi energy: -1.818848; 62.000000 electrons
         Band energy:-373.650615;  BLOECHL correction:  0.000000

 total amount of memory used by VASP MPI-rank0   132411. kBytes
=======================================================================

   base      :      30000. kBytes
   nonlr-proj:       9911. kBytes
   fftplans  :      11247. kBytes
   grid      :      68332. kBytes
   one-center:        311. kBytes
   wavefun   :      12610. kBytes

  
  
 General timing and accounting informations for this job:
 ========================================================
  
                  Total CPU time used (sec):     9700.012
                            User time (sec):     9468.280
                          System time (sec):      231.732
                         Elapsed time (sec):     9782.568
  
                   Maximum memory used (kb):      384316.
                   Average memory used (kb):           0.
  
                          Minor page faults:      8687885
                          Major page faults:            9
                 Voluntary context switches:         1041
