 vasp.5.4.4.18Apr17-6-g9f103f2a35 (build May  1 2020 15:48:39) complex           
 executed on             LinuxGNU date 2020.06.19  15:06:36
 running on   16 total cores
 distrk:  each k-point on   16 cores,    1 groups
 distr:  one band on NCORES_PER_BAND=   1 cores,   16 groups


--------------------------------------------------------------------------------------------------------


 INCAR:
 POTCAR:   PAW_PBE Ni 06Sep2000                   
 POTCAR:    PAW_PBE P 17Jan2003                   
 POTCAR:   PAW_PBE Se 06Sep2000                   

 ----------------------------------------------------------------------------- 
|                                                                             |
|           W    W    AA    RRRRR   N    N  II  N    N   GGGG   !!!           |
|           W    W   A  A   R    R  NN   N  II  NN   N  G    G  !!!           |
|           W    W  A    A  R    R  N N  N  II  N N  N  G       !!!           |
|           W WW W  AAAAAA  RRRRR   N  N N  II  N  N N  G  GGG   !            |
|           WW  WW  A    A  R   R   N   NN  II  N   NN  G    G                |
|           W    W  A    A  R    R  N    N  II  N    N   GGGG   !!!           |
|                                                                             |
|      For optimal performance we recommend to set                            |
|        NCORE= 4 - approx SQRT( number of cores)                             |
|      NCORE specifies how many cores store one orbital (NPAR=cpu/NCORE).     |
|      This setting can  greatly improve the performance of VASP for DFT.     |
|      The default,   NCORE=1            might be grossly inefficient         |
|      on modern multi-core architectures or massively parallel machines.     |
|      Do your own testing !!!!                                               |
|      Unfortunately you need to use the default for GW and RPA calculations. |
|      (for HF NCORE is supported but not extensively tested yet)             |
|                                                                             |
 ----------------------------------------------------------------------------- 


 ----------------------------------------------------------------------------- 
|                                                                             |
|  ADVICE TO THIS USER RUNNING 'VASP/VAMP'   (HEAR YOUR MASTER'S VOICE ...):  |
|                                                                             |
|      You have switched on vdW-DFT.                                          |
|      This routine was written and supplied by Jiri Klimes.                  |
|      We recommed that you carefully read and cite the following             |
|      publication                                                            |
|      J. Klimes, D.R. Bowler, A. Michelides                                  |
|        J. Phys.: Cond Matt. 22 022201 (2010)                                |
|      J. Klimes, D.R. Bowler, A. Michelides                                  |
|        Phys. Rev. B. 83, 195131 (2011)                                      |
|      and references therein.                                                |
|                                                                             |
 ----------------------------------------------------------------------------- 

 POTCAR:   PAW_PBE Ni 06Sep2000                   
   VRHFIN =Ni:                                                                  
   LEXCH  = PE                                                                  
   EATOM  =  1077.9025 eV,   79.2236 Ry                                         
                                                                                
   TITEL  = PAW_PBE Ni 06Sep2000                                                
   LULTRA =        F    use ultrasoft PP ?                                      
   IUNSCR =        1    unscreen: 0-lin 1-nonlin 2-no                           
   RPACOR =    2.000    partial core radius                                     
   POMASS =   58.690; ZVAL   =   10.000    mass and valenz                      
   RCORE  =    2.300    outmost cutoff radius                                   
   RWIGS  =    2.430; RWIGS  =    1.286    wigner-seitz radius (au A)           
   ENMAX  =  269.533; ENMIN  =  202.150 eV                                      
   RCLOC  =    1.681    cutoff for local pot                                    
   LCOR   =        T    correct aug charges                                     
   LPAW   =        T    paw PP                                                  
   EAUG   =  544.565                                                            
   DEXC   =    -.009                                                            
   RMAX   =    2.808    core radius for proj-oper                               
   RAUG   =    1.300    factor for augmentation sphere                          
   RDEP   =    2.390    radius for radial grids                                 
   QCUT   =   -4.451; QGAM   =    8.902    optimization parameters              
                                                                                
   Description                                                                  
     l     E      TYP  RCUT    TYP  RCUT                                        
     2   .000     23  2.300                                                     
     2   .000     23  2.300                                                     
     0   .000     23  2.300                                                     
     0   .000     23  2.300                                                     
     1  -.200     23  2.300                                                     
     1   .000     23  2.300                                                     
     3   .000      7   .000                                                     
  local pseudopotential read in
  partial core-charges read in
  atomic valenz-charges read in
  non local Contribution for L=           2  read in
    real space projection operators read in
  non local Contribution for L=           2  read in
    real space projection operators read in
  non local Contribution for L=           0  read in
    real space projection operators read in
  non local Contribution for L=           0  read in
    real space projection operators read in
  non local Contribution for L=           1  read in
    real space projection operators read in
  non local Contribution for L=           1  read in
    real space projection operators read in
    PAW grid and wavefunctions read in

   number of l-projection  operators is LMAX  =           6
   number of lm-projection operators is LMMAX =          18

 POTCAR:    PAW_PBE P 17Jan2003                   
   VRHFIN =P : s2p3                                                             
   LEXCH  = PE                                                                  
   EATOM  =   176.0430 eV,   12.9388 Ry                                         
                                                                                
   TITEL  = PAW_PBE P 17Jan2003                                                 
   LULTRA =        F    use ultrasoft PP ?                                      
   IUNSCR =        1    unscreen: 0-lin 1-nonlin 2-no                           
   RPACOR =    1.500    partial core radius                                     
   POMASS =   30.974; ZVAL   =    5.000    mass and valenz                      
   RCORE  =    1.900    outmost cutoff radius                                   
   RWIGS  =    2.330; RWIGS  =    1.233    wigner-seitz radius (au A)           
   ENMAX  =  270.000; ENMIN  =  191.280 eV                                      
   ICORE  =        2    local potential                                         
   LCOR   =        T    correct aug charges                                     
   LPAW   =        T    paw PP                                                  
   EAUG   =  342.924                                                            
   DEXC   =    -.002                                                            
   RMAX   =    2.887    core radius for proj-oper                               
   RAUG   =    1.300    factor for augmentation sphere                          
   RDEP   =    1.931    radius for radial grids                                 
   QCUT   =   -4.330; QGAM   =    8.659    optimization parameters              
                                                                                
   Description                                                                  
     l     E      TYP  RCUT    TYP  RCUT                                        
     0   .000     23  1.900                                                     
     0   .000     23  1.900                                                     
     1   .000     23  1.900                                                     
     1   .000     23  1.900                                                     
     2   .000     23  1.900                                                     
  local pseudopotential read in
  partial core-charges read in
  atomic valenz-charges read in
  non local Contribution for L=           0  read in
    real space projection operators read in
  non local Contribution for L=           0  read in
    real space projection operators read in
  non local Contribution for L=           1  read in
    real space projection operators read in
  non local Contribution for L=           1  read in
    real space projection operators read in
    PAW grid and wavefunctions read in

   number of l-projection  operators is LMAX  =           4
   number of lm-projection operators is LMMAX =           8

 POTCAR:   PAW_PBE Se 06Sep2000                   
   VRHFIN =Se: s2p4                                                             
   LEXCH  = PE                                                                  
   EATOM  =   256.9644 eV,   18.8864 Ry                                         
                                                                                
   TITEL  = PAW_PBE Se 06Sep2000                                                
   LULTRA =        F    use ultrasoft PP ?                                      
   IUNSCR =        1    unscreen: 0-lin 1-nonlin 2-no                           
   RPACOR =    1.900    partial core radius                                     
   POMASS =   78.960; ZVAL   =    6.000    mass and valenz                      
   RCORE  =    2.100    outmost cutoff radius                                   
   RWIGS  =    2.200; RWIGS  =    1.164    wigner-seitz radius (au A)           
   ENMAX  =  211.534; ENMIN  =  158.651 eV                                      
   ICORE  =        3    local potential                                         
   LCOR   =        T    correct aug charges                                     
   LPAW   =        T    paw PP                                                  
   EAUG   =  446.842                                                            
   DEXC   =    -.031                                                            
   RMAX   =    3.170    core radius for proj-oper                               
   RAUG   =    1.300    factor for augmentation sphere                          
   RDEP   =    2.177    radius for radial grids                                 
   QCUT   =   -3.943; QGAM   =    7.886    optimization parameters              
                                                                                
   Description                                                                  
     l     E      TYP  RCUT    TYP  RCUT                                        
     0   .000     23  2.100                                                     
     0   .000     23  2.100                                                     
     1   .000     23  2.100                                                     
     1   .000     23  2.100                                                     
     2   .000     23  2.100                                                     
     3  -.100      7  2.100                                                     
  local pseudopotential read in
  partial core-charges read in
  atomic valenz-charges read in
  non local Contribution for L=           0  read in
    real space projection operators read in
  non local Contribution for L=           0  read in
    real space projection operators read in
  non local Contribution for L=           1  read in
    real space projection operators read in
  non local Contribution for L=           1  read in
    real space projection operators read in
  non local Contribution for L=           2  read in
    real space projection operators read in
    PAW grid and wavefunctions read in

   number of l-projection  operators is LMAX  =           5
   number of lm-projection operators is LMMAX =          13

 Optimization of the real space projectors (new method)

 maximal supplied QI-value         = 16.25
 optimisation between [QCUT,QGAM] = [ 11.54, 23.24] = [ 37.28,151.24] Ry 
 Optimized for a Real-space Cutoff    1.49 Angstroem

   l    n(q)    QCUT    max X(q) W(low)/X(q) W(high)/X(q)  e(spline) 
   2      9    11.539     4.811    0.20E-04    0.14E-04    0.45E-07
   2      9    11.539    15.146    0.24E-03    0.12E-03    0.20E-06
   0     10    11.539    14.357    0.18E-04    0.12E-05    0.14E-07
   0     10    11.539    43.282    0.39E-04    0.17E-04    0.23E-06
   1     10    11.539     5.514    0.99E-05    0.13E-04    0.19E-07
   1     10    11.539     7.697    0.38E-04    0.79E-04    0.91E-07
 Optimization of the real space projectors (new method)

 maximal supplied QI-value         = 19.84
 optimisation between [QCUT,QGAM] = [ 11.51, 23.22] = [ 37.09,150.92] Ry 
 Optimized for a Real-space Cutoff    1.21 Angstroem

   l    n(q)    QCUT    max X(q) W(low)/X(q) W(high)/X(q)  e(spline) 
   0      8    11.508     6.651    0.19E-04    0.31E-05    0.49E-08
   0      8    11.508    90.285    0.95E-04    0.17E-03    0.51E-07
   1      8    11.508     4.328    0.14E-04    0.32E-04    0.22E-07
   1      8    11.508    54.583    0.16E-03    0.71E-04    0.89E-07
 Optimization of the real space projectors (new method)

 maximal supplied QI-value         = 17.95
 optimisation between [QCUT,QGAM] = [ 11.67, 23.34] = [ 38.13,152.52] Ry 
 Optimized for a Real-space Cutoff    1.25 Angstroem

   l    n(q)    QCUT    max X(q) W(low)/X(q) W(high)/X(q)  e(spline) 
   0      9    11.669     6.499    0.13E-04    0.81E-05    0.11E-07
   0      9    11.669    52.623    0.18E-03    0.46E-04    0.72E-07
   1      8    11.669     4.229    0.40E-04    0.45E-04    0.31E-07
   1      8    11.669    29.991    0.22E-03    0.36E-03    0.10E-06
   2      8    11.669     3.719    0.19E-03    0.46E-04    0.50E-07

 ----------------------------------------------------------------------------- 
|                                                                             |
|  ADVICE TO THIS USER RUNNING 'VASP/VAMP'   (HEAR YOUR MASTER'S VOICE ...):  |
|                                                                             |
|      You enforced a specific xc-type in the INCAR file,                     |
|      a different type was found on the POTCAR file                          |
|          I HOPE YOU KNOW, WHAT YOU ARE  DOING                               |
|                                                                             |
 ----------------------------------------------------------------------------- 

 PAW_PBE Ni 06Sep2000                   :
 energy of atom  1       EATOM=-1077.9025
 kinetic energy error for atom=    0.0030 (will be added to EATOM!!)
  PAW_PBE P 17Jan2003                   :
 energy of atom  2       EATOM= -176.0430
 kinetic energy error for atom=    0.0011 (will be added to EATOM!!)
 PAW_PBE Se 06Sep2000                   :
 energy of atom  3       EATOM= -256.9644
 kinetic energy error for atom=    0.0007 (will be added to EATOM!!)


 POSCAR: Ni2 P2 Se6                              
  positions in direct lattice
  velocities in cartesian coordinates
  No initial velocities read in
 exchange correlation table for  LEXCH =       42
   RHO(1)=    0.500       N(1)  =     2000
   RHO(2)=  100.500       N(2)  =     4000



--------------------------------------------------------------------------------------------------------


 ion  position               nearest neighbor table
   1  0.333  0.333  0.500-   6 2.78   5 2.78   7 2.78   8 2.78  10 2.78   9 2.78
   2  0.667  0.667  0.500-   9 2.78   8 2.78  10 2.78   5 2.78   7 2.78   6 2.78
   3  0.000  0.000  0.448-   4 2.43   8 2.63  10 2.63   9 2.63
   4  0.000  0.000  0.552-   3 2.43   5 2.63   7 2.63   6 2.63
   5  0.626  0.000  0.574-   4 2.63   1 2.78   2 2.78
   6  0.000  0.373  0.574-   4 2.63   1 2.78   2 2.78
   7  0.373  0.626  0.574-   4 2.63   1 2.78   2 2.78
   8  0.374  1.000  0.426-   3 2.63   2 2.78   1 2.78
   9  1.000  0.627  0.426-   3 2.63   2 2.78   1 2.78
  10  0.627  0.374  0.426-   3 2.63   2 2.78   1 2.78

  LATTYP: Found a hexagonal cell.
 ALAT       =     6.9077769333
 C/A-ratio  =     3.3939410937
  
  Lattice vectors:
  
 A1 = (   3.4538890000,  -5.9823100000,   0.0000000000)
 A2 = (  -6.9077770000,   0.0000000000,   0.0000000000)
 A3 = (   0.0000000000,   0.0000000000, -23.4445880000)


Analysis of symmetry for initial positions (statically):
=====================================================================
 Subroutine PRICEL returns:
 Original cell was already a primitive cell.
 

 Routine SETGRP: Setting up the symmetry group for a 
 hexagonal supercell.


 Subroutine GETGRP returns: Found  6 space group operations
 (whereof  6 operations were pure point group operations)
 out of a pool of 24 trial point group operations.


The static configuration has the point symmetry S_6 .


Analysis of symmetry for dynamics (positions and initial velocities):
=====================================================================
 Subroutine PRICEL returns:
 Original cell was already a primitive cell.
 

 Routine SETGRP: Setting up the symmetry group for a 
 hexagonal supercell.


 Subroutine GETGRP returns: Found  6 space group operations
 (whereof  6 operations were pure point group operations)
 out of a pool of 24 trial point group operations.


The dynamic configuration has the point symmetry S_6 .


Analysis of constrained symmetry for selective dynamics:
=====================================================================
 Subroutine PRICEL returns:
 Original cell was already a primitive cell.
 

 Routine SETGRP: Setting up the symmetry group for a 
 hexagonal supercell.


 Subroutine GETGRP returns: Found  6 space group operations
 (whereof  6 operations were pure point group operations)
 out of a pool of 24 trial point group operations.


The constrained configuration has the point symmetry S_6 .


Analysis of structural, dynamic, and magnetic symmetry:
=====================================================================
 Subroutine PRICEL returns:
 Original cell was already a primitive cell.
 

 Routine SETGRP: Setting up the symmetry group for a 
 hexagonal supercell.


 Subroutine GETGRP returns: Found  6 space group operations
 (whereof  6 operations were pure point group operations)
 out of a pool of 24 trial point group operations.


The magnetic configuration has the point symmetry S_6 .


 Subroutine INISYM returns: Found  6 space group operations
 (whereof  6 operations are pure point group operations),
 and found     1 'primitive' translations



 KPOINTS: Kpoints from vasprun.xml                

Automatic generation of k-mesh.
Space group operators:
 irot       det(A)        alpha          n_x          n_y          n_z        tau_x        tau_y        tau_z
    1     1.000000     0.000000     1.000000     0.000000     0.000000     0.000000     0.000000     0.000000
    2    -1.000000     0.000000     1.000000     0.000000     0.000000     0.000000     0.000000     0.000000
    3     1.000000   120.000000     0.000000     0.000000     1.000000     0.000000     0.000000     0.000000
    4    -1.000000   120.000000     0.000000     0.000000     1.000000     0.000000     0.000000     0.000000
    5     1.000000   120.000000     0.000000     0.000000    -1.000000     0.000000     0.000000     0.000000
    6    -1.000000   120.000000     0.000000     0.000000    -1.000000     0.000000     0.000000     0.000000
 
 Subroutine IBZKPT returns following result:
 ===========================================
 
 Found      5 irreducible k-points:
 
 Following reciprocal coordinates:
            Coordinates               Weight
  0.000000  0.000000  0.000000      1.000000
  0.200000  0.000000  0.000000      6.000000
  0.400000  0.000000  0.000000      6.000000
  0.400000  0.200000  0.000000      6.000000
 -0.400000  0.200000  0.000000      6.000000
 
 Following cartesian coordinates:
            Coordinates               Weight
  0.000000  0.000000  0.000000      1.000000
  0.028953 -0.016716  0.000000      6.000000
  0.057906 -0.033432  0.000000      6.000000
  0.057906  0.000000  0.000000      6.000000
 -0.057906  0.066864  0.000000      6.000000
 
 TETIRR: Found     15 inequivalent tetrahedra from      150


--------------------------------------------------------------------------------------------------------




 Dimension of arrays:
   k-points           NKPTS =      5   k-points in BZ     NKDIM =      5   number of bands    NBANDS=     48
   number of dos      NEDOS =    301   number of ions     NIONS =     10
   non local maximal  LDIM  =      6   non local SUM 2l+1 LMDIM =     18
   total plane-waves  NPLWV = 524880
   max r-space proj   IRMAX =   7543   max aug-charges    IRDMAX=  23823
   dimension x,y,z NGX =    54 NGY =   54 NGZ =  180
   dimension x,y,z NGXF=   108 NGYF=  108 NGZF=  360
   support grid    NGXF=   108 NGYF=  108 NGZF=  360
   ions per type =               2   2   6
   NGX,Y,Z   is equivalent  to a cutoff of  13.00, 13.00, 12.76 a.u.
   NGXF,Y,Z  is equivalent  to a cutoff of  25.99, 25.99, 25.53 a.u.

 SYSTEM =  unknown system                          
 POSCAR =  Ni2 P2 Se6                              

 Startparameter for this run:
   NWRITE =      2    write-flag & timer
   PREC   = accura    normal or accurate (medium, high low for compatibility)
   ISTART =      0    job   : 0-new  1-cont  2-samecut
   ICHARG =      2    charge: 1-file 2-atom 10-const
   ISPIN  =      2    spin polarized calculation?
   LNONCOLLINEAR =      F non collinear calculations
   LSORBIT =      F    spin-orbit coupling
   INIWAV =      1    electr: 0-lowe 1-rand  2-diag
   LASPH  =      F    aspherical Exc in radial PAW
   METAGGA=      F    non-selfconsistent MetaGGA calc.

 Electronic Relaxation 1
   ENCUT  =  520.0 eV  38.22 Ry    6.18 a.u.  12.84 12.84 43.59*2*pi/ulx,y,z
   ENINI  =  520.0     initial cutoff
   ENAUG  =  544.6 eV  augmentation charge cutoff
   NELM   =    400;   NELMIN=  2; NELMDL=  0     # of ELM steps 
   EDIFF  = 0.1E-03   stopping-criterion for ELM
   LREAL  =      T    real-space projection
   NLSPLINE    = F    spline interpolate recip. space projectors
   LCOMPAT=      F    compatible to vasp.4.4
   GGA_COMPAT  = T    GGA compatible to vasp.4.4-vasp.4.6
   LMAXPAW     = -100 max onsite density
   LMAXMIX     =    2 max onsite mixed and CHGCAR
   VOSKOWN=      0    Vosko Wilk Nusair interpolation
   ROPT   =   -0.00025  -0.00025  -0.00025
 Ionic relaxation
   EDIFFG = 0.1E-02   stopping-criterion for IOM
   NSW    =     99    number of steps for IOM
   NBLOCK =      1;   KBLOCK =     99    inner block; outer block 
   IBRION =      2    ionic relax: 0-MD 1-quasi-New 2-CG
   NFREE  =      1    steps in history (QN), initial steepest desc. (CG)
   ISIF   =      3    stress and relaxation
   IWAVPR =     11    prediction:  0-non 1-charg 2-wave 3-comb
   ISYM   =      2    0-nonsym 1-usesym 2-fastsym
   LCORR  =      T    Harris-Foulkes like correction to forces

   POTIM  = 0.5000    time-step for ionic-motion
   TEIN   =    0.0    initial temperature
   TEBEG  =    0.0;   TEEND  =   0.0 temperature during run
   SMASS  =  -3.00    Nose mass-parameter (am)
   estimated Nose-frequenzy (Omega)   =  0.10E-29 period in steps =****** mass=  -0.109E-26a.u.
   SCALEE = 1.0000    scale energy and forces
   NPACO  =    256;   APACO  = 16.0  distance and # of slots for P.C.
   PSTRESS=    0.0 pullay stress

  Mass of Ions in am
   POMASS =  58.69 30.97 78.96
  Ionic Valenz
   ZVAL   =  10.00  5.00  6.00
  Atomic Wigner-Seitz radii
   RWIGS  =  -1.00 -1.00 -1.00
  virtual crystal weights 
   VCA    =   1.00  1.00  1.00
   NELECT =      66.0000    total number of electrons
   NUPDOWN=      -1.0000    fix difference up-down

 DOS related values:
   EMIN   =  10.00;   EMAX   =-10.00  energy-range for DOS
   EFERMI =   0.00
   ISMEAR =    -5;   SIGMA  =   0.05  broadening in eV -4-tet -1-fermi 0-gaus

 Electronic relaxation 2 (details)
   IALGO  =     38    algorithm
   LDIAG  =      T    sub-space diagonalisation (order eigenvalues)
   LSUBROT=      F    optimize rotation matrix (better conditioning)
   TURBO    =      0    0=normal 1=particle mesh
   IRESTART =      0    0=no restart 2=restart with 2 vectors
   NREBOOT  =      0    no. of reboots
   NMIN     =      0    reboot dimension
   EREF     =   0.00    reference energy to select bands
   IMIX   =      4    mixing-type and parameters
     AMIX     =   0.40;   BMIX     =  1.00
     AMIX_MAG =   1.60;   BMIX_MAG =  1.00
     AMIN     =   0.01
     WC   =   100.;   INIMIX=   1;  MIXPRE=   1;  MAXMIX= -45

 Intra band minimization:
   WEIMIN = 0.0010     energy-eigenvalue tresh-hold
   EBREAK =  0.52E-06  absolut break condition
   DEPER  =   0.30     relativ break condition  

   TIME   =   0.40     timestep for ELM

  volume/ion in A,a.u.               =      96.88       653.80
  Fermi-wavevector in a.u.,A,eV,Ry     =   0.668610  1.263490  6.082339  0.447039
  Thomas-Fermi vector in A             =   1.743574

 Write flags
   LWAVE        =      F    write WAVECAR
   LDOWNSAMPLE  =      F    k-point downsampling of WAVECAR
   LCHARG       =      T    write CHGCAR
   LVTOT        =      F    write LOCPOT, total local potential
   LVHAR        =      F    write LOCPOT, Hartree potential only
   LELF         =      F    write electronic localiz. function (ELF)
   LORBIT       =     11    0 simple, 1 ext, 2 COOP (PROOUT), +10 PAW based schemes


 Dipole corrections
   LMONO  =      F    monopole corrections only (constant potential shift)
   LDIPOL =      F    correct potential (dipole corrections)
   IDIPOL =      0    1-x, 2-y, 3-z, 4-all directions 
   EPSILON=  1.0000000 bulk dielectric constant

 Exchange correlation treatment:
   GGA     =    BO    GGA type
   LEXCH   =    42    internal setting for exchange type
   VOSKOWN=      0    Vosko Wilk Nusair interpolation
   LHFCALC =     F    Hartree Fock is set to
   LHFONE  =     F    Hartree Fock one center treatment
   AEXX    =    0.0000 exact exchange contribution

 vdW DFT:
   LUSE_VDW   =     T    switch on vdW DFT
   Zab_VDW    =-.8491    correlation parameter
   PARAM1     =0.1833
   PARAM2     =0.2200
   PARAM3     =0.0000
   -- rVV10 --
   BPARAM     = 6.3000
   CPARAM     = 0.0093

 Linear response parameters
   LEPSILON=     F    determine dielectric tensor
   LRPA    =     F    only Hartree local field effects (RPA)
   LNABLA  =     F    use nabla operator in PAW spheres
   LVEL    =     F    velocity operator in full k-point grid
   LINTERFAST=   F  fast interpolation
   KINTER  =     0    interpolate to denser k-point grid
   CSHIFT  =0.1000    complex shift for real part using Kramers Kronig
   OMEGAMAX=  -1.0    maximum frequency
   DEG_THRESHOLD= 0.2000000E-02 threshold for treating states as degnerate
   RTIME   =   -0.100 relaxation time in fs
  (WPLASMAI=    0.000 imaginary part of plasma frequency in eV, 0.658/RTIME)
   DFIELD  = 0.0000000 0.0000000 0.0000000 field for delta impulse in time

 Orbital magnetization related:
   ORBITALMAG=     F  switch on orbital magnetization
   LCHIMAG   =     F  perturbation theory with respect to B field
   DQ        =  0.001000  dq finite difference perturbation B field
   LLRAUG    =     F  two centre corrections for induced B field



--------------------------------------------------------------------------------------------------------


 conjugate gradient relaxation of ions
   using selective dynamics as specified on POSCAR
 charge density and potential will be updated during run
 spin polarized calculation
 Variant of blocked Davidson
 Davidson routine will perform the subspace rotation
 perform sub-space diagonalisation
    after iterative eigenvector-optimisation
 modified Broyden-mixing scheme, WC =      100.0
 initial mixing is a Kerker type mixing with AMIX =  0.4000 and BMIX =      1.0000
 Hartree-type preconditioning will be used
 using additional bands           15
 real space projection scheme for non local part
 use partial core corrections
 calculate Harris-corrections to forces   (improved forces if not selfconsistent)
 use gradient corrections 
 use of overlap-Matrix (Vanderbilt PP)
 Fermi weights with tetrahedron method with Bloechl corrections


--------------------------------------------------------------------------------------------------------


  energy-cutoff  :      520.00
  volume of cell :      968.84
      direct lattice vectors                 reciprocal lattice vectors
     6.907777000 -0.000000000  0.000000000     0.144764372 -0.083579742  0.000000000
     3.453888000  5.982310000  0.000000000     0.000000000  0.167159509 -0.000000000
     0.000000000  0.000000000 23.444588000    -0.000000000  0.000000000  0.042653767

  length of vectors
     6.907777000  6.907776433 23.444588000     0.167159495  0.167159509  0.042653767



 k-points in units of 2pi/SCALE and weight: Kpoints from vasprun.xml                
   0.00000000  0.00000000  0.00000000       0.040
   0.02895287 -0.01671595  0.00000000       0.240
   0.05790575 -0.03343190  0.00000000       0.240
   0.05790575  0.00000000  0.00000000       0.240
  -0.05790575  0.06686380  0.00000000       0.240

 k-points in reciprocal lattice and weights: Kpoints from vasprun.xml                
   0.00000000  0.00000000  0.00000000       0.040
   0.20000000  0.00000000  0.00000000       0.240
   0.40000000  0.00000000  0.00000000       0.240
   0.40000000  0.20000000  0.00000000       0.240
  -0.40000000  0.20000000  0.00000000       0.240

 position of ions in fractional coordinates (direct lattice) 
   0.33333300  0.33333300  0.49992500
   0.66666700  0.66666700  0.50007500
   0.00000000  0.00000000  0.44821600
   0.00000000  0.00000000  0.55178400
   0.62635700  0.00042000  0.57375200
   0.00042000  0.37322400  0.57375200
   0.37322400  0.62635700  0.57375200
   0.37364300  0.99958000  0.42624800
   0.99958000  0.62677600  0.42624800
   0.62677600  0.37364300  0.42624800

 position of ions in cartesian coordinates  (Angst):
   3.45388488  1.99410134 11.72053566
   6.90778012  3.98820866 11.72405234
   0.00000000  0.00000000 10.50823946
   0.00000000  0.00000000 12.93634854
   4.32818511  0.00251257 13.45137925
   1.29197516  2.23274167 13.45137925
   4.74151509  3.74706174 13.45137925
   6.03347989  5.97979743  9.99320875
   9.06968984  3.74956833  9.99320875
   5.62014991  2.23524826  9.99320875



--------------------------------------------------------------------------------------------------------


 k-point  1 :   0.0000 0.0000 0.0000  plane waves:   26073
 k-point  2 :   0.2000 0.0000 0.0000  plane waves:   26070
 k-point  3 :   0.4000 0.0000 0.0000  plane waves:   26086
 k-point  4 :   0.4000 0.2000 0.0000  plane waves:   26085
 k-point  5 :  -0.4000 0.2000 0.0000  plane waves:   26115

 maximum and minimum number of plane-waves per node :     26115    26070

 maximum number of plane-waves:     26115
 maximum index in each direction: 
   IXMAX=   13   IYMAX=   12   IZMAX=   43
   IXMIN=  -13   IYMIN=  -13   IZMIN=  -43


 serial   3D FFT for wavefunctions
 parallel 3D FFT for charge:
    minimum data exchange during FFTs selected (reduces bandwidth)


 total amount of memory used by VASP MPI-rank0   127362. kBytes
=======================================================================

   base      :      30000. kBytes
   nonlr-proj:       7052. kBytes
   fftplans  :      11247. kBytes
   grid      :      66142. kBytes
   one-center:        311. kBytes
   wavefun   :      12610. kBytes

     INWAV:  cpu time    0.0000: real time    0.0004
 Broyden mixing: mesh for mixing (old mesh)
   NGX = 25   NGY = 25   NGZ = 87
  (NGX  =108   NGY  =108   NGZ  =360)
  gives a total of  54375 points

 initial charge density was supplied:
 charge density of overlapping atoms calculated
 number of electron      66.0000000 magnetization       7.3200000
 keeping initial charge density in first step


--------------------------------------------------------------------------------------------------------


 Maximum index for non-local projection operator         7247
 Maximum index for augmentation-charges         1715 (set IRDMAX)


--------------------------------------------------------------------------------------------------------


 First call to EWALD:  gamma=   0.179
 Maximum number of real-space cells 4x 4x 1
 Maximum number of reciprocal cells 2x 2x 6

    FEWALD:  cpu time    0.0000: real time    0.0015


--------------------------------------- Iteration      1(   1)  ---------------------------------------


vdW kernel read from vdw_kernel.bindat
  0.0000  0.2424  0.5071  0.7962  1.1119  1.4567  1.8333  2.2446  2.6937  3.1842
  3.7199  4.3049  4.9438  5.6415  6.4036  7.2358  8.1446  9.1372 10.2212 11.4050
 12.6979 14.1099 15.6519 17.3360 19.1751 21.1837 23.3773 25.7729 28.3892 31.2465
 34.3669 37.7748 41.4965 45.5611 50.0000

    POTLOK:  cpu time   52.0280: real time   52.8609
    SETDIJ:  cpu time    0.0480: real time    0.0483
     EDDAV:  cpu time   23.3560: real time   23.5297
 BZINTS: Fermi energy:  4.655507; 66.000000 electrons
         Band energy: -42.434421;  BLOECHL correction: -0.021405
       DOS:  cpu time    0.0040: real time    0.0042
    --------------------------------------------
      LOOP:  cpu time   75.4360: real time   76.4430

 eigenvalue-minimisations  :   960
 total energy-change (2. order) : 0.4312231E+03  (-0.2038718E+04)
 number of electron      66.0000000 magnetization       7.3200000
 augmentation part       66.0000000 magnetization       7.3200000

 Free energy of the ion-electron system (eV)
  ---------------------------------------------------
  alpha Z        PSCENC =        40.21073901
  Ewald energy   TEWEN  =      8617.63405943
  -Hartree energ DENC   =    -12278.93955136
  -exchange      EXHF   =         0.00000000
  -V(xc)+E(xc)   XCENC  =        55.54692054
  PAW double counting   =      2471.65688977    -2499.79500262
  entropy T*S    EENTRO =         0.00000000
  eigenvalues    EBANDS =       -42.43442103
  atomic energy  EATOM  =      4067.34345142
  Solvation  Ediel_sol  =         0.00000000
  ---------------------------------------------------
  free energy    TOTEN  =       431.22308516 eV

  energy without entropy =      431.22308516  energy(sigma->0) =      431.22308516


--------------------------------------------------------------------------------------------------------




--------------------------------------- Iteration      1(   2)  ---------------------------------------


     EDDAV:  cpu time   32.3520: real time   32.5355
 BZINTS: Fermi energy: -1.995431; 66.000000 electrons
         Band energy:-443.053141;  BLOECHL correction: -0.040254
       DOS:  cpu time    0.0080: real time    0.0054
    --------------------------------------------
      LOOP:  cpu time   32.3600: real time   32.5409

 eigenvalue-minimisations  :  1424
 total energy-change (2. order) :-0.4006187E+03  (-0.3814739E+03)
 number of electron      66.0000000 magnetization       7.3200000
 augmentation part       66.0000000 magnetization       7.3200000

 Free energy of the ion-electron system (eV)
  ---------------------------------------------------
  alpha Z        PSCENC =        40.21073901
  Ewald energy   TEWEN  =      8617.63405943
  -Hartree energ DENC   =    -12278.93955136
  -exchange      EXHF   =         0.00000000
  -V(xc)+E(xc)   XCENC  =        55.54692054
  PAW double counting   =      2471.65688977    -2499.79500262
  entropy T*S    EENTRO =         0.00000000
  eigenvalues    EBANDS =      -443.05314059
  atomic energy  EATOM  =      4067.34345142
  Solvation  Ediel_sol  =         0.00000000
  ---------------------------------------------------
  free energy    TOTEN  =        30.60436560 eV

  energy without entropy =       30.60436560  energy(sigma->0) =       30.60436560


--------------------------------------------------------------------------------------------------------




--------------------------------------- Iteration      1(   3)  ---------------------------------------


     EDDAV:  cpu time   28.7320: real time   28.7798
 BZINTS: Fermi energy: -2.837862; 66.000000 electrons
         Band energy:-508.893944;  BLOECHL correction: -0.004721
       DOS:  cpu time    0.0040: real time    0.0049
    --------------------------------------------
      LOOP:  cpu time   28.7360: real time   28.7847

 eigenvalue-minimisations  :  1248
 total energy-change (2. order) :-0.6584080E+02  (-0.6385905E+02)
 number of electron      66.0000000 magnetization       7.3200000
 augmentation part       66.0000000 magnetization       7.3200000

 Free energy of the ion-electron system (eV)
  ---------------------------------------------------
  alpha Z        PSCENC =        40.21073901
  Ewald energy   TEWEN  =      8617.63405943
  -Hartree energ DENC   =    -12278.93955136
  -exchange      EXHF   =         0.00000000
  -V(xc)+E(xc)   XCENC  =        55.54692054
  PAW double counting   =      2471.65688977    -2499.79500262
  entropy T*S    EENTRO =         0.00000000
  eigenvalues    EBANDS =      -508.89394363
  atomic energy  EATOM  =      4067.34345142
  Solvation  Ediel_sol  =         0.00000000
  ---------------------------------------------------
  free energy    TOTEN  =       -35.23643744 eV

  energy without entropy =      -35.23643744  energy(sigma->0) =      -35.23643744


--------------------------------------------------------------------------------------------------------




--------------------------------------- Iteration      1(   4)  ---------------------------------------


     EDDAV:  cpu time   25.3480: real time   25.4047
 BZINTS: Fermi energy: -2.855153; 66.000000 electrons
         Band energy:-511.181194;  BLOECHL correction: -0.004645
       DOS:  cpu time    0.0040: real time    0.0050
    --------------------------------------------
      LOOP:  cpu time   25.3520: real time   25.4097

 eigenvalue-minimisations  :  1088
 total energy-change (2. order) :-0.2287250E+01  (-0.2272890E+01)
 number of electron      66.0000000 magnetization       7.3200000
 augmentation part       66.0000000 magnetization       7.3200000

 Free energy of the ion-electron system (eV)
  ---------------------------------------------------
  alpha Z        PSCENC =        40.21073901
  Ewald energy   TEWEN  =      8617.63405943
  -Hartree energ DENC   =    -12278.93955136
  -exchange      EXHF   =         0.00000000
  -V(xc)+E(xc)   XCENC  =        55.54692054
  PAW double counting   =      2471.65688977    -2499.79500262
  entropy T*S    EENTRO =         0.00000000
  eigenvalues    EBANDS =      -511.18119372
  atomic energy  EATOM  =      4067.34345142
  Solvation  Ediel_sol  =         0.00000000
  ---------------------------------------------------
  free energy    TOTEN  =       -37.52368753 eV

  energy without entropy =      -37.52368753  energy(sigma->0) =      -37.52368753


--------------------------------------------------------------------------------------------------------




--------------------------------------- Iteration      1(   5)  ---------------------------------------


     EDDAV:  cpu time   30.5760: real time   30.7317
 BZINTS: Fermi energy: -2.855415; 66.000000 electrons
         Band energy:-511.233725;  BLOECHL correction: -0.004716
       DOS:  cpu time    0.0040: real time    0.0058
    CHARGE:  cpu time    2.1640: real time    2.1675
    MIXING:  cpu time    0.0440: real time    0.0419
    --------------------------------------------
      LOOP:  cpu time   32.7880: real time   32.9469

 eigenvalue-minimisations  :  1344
 total energy-change (2. order) :-0.5253128E-01  (-0.5243784E-01)
 number of electron      65.9999991 magnetization       7.3490416
 augmentation part        0.6313868 magnetization       4.3021055

 Broyden mixing:
  rms(total) = 0.35192E+01    rms(broyden)= 0.35191E+01
  rms(prec ) = 0.37334E+01
  weight for this iteration     100.00

 Free energy of the ion-electron system (eV)
  ---------------------------------------------------
  alpha Z        PSCENC =        40.21073901
  Ewald energy   TEWEN  =      8617.63405943
  -Hartree energ DENC   =    -12278.93955136
  -exchange      EXHF   =         0.00000000
  -V(xc)+E(xc)   XCENC  =        55.54692054
  PAW double counting   =      2471.65688977    -2499.79500262
  entropy T*S    EENTRO =         0.00000000
  eigenvalues    EBANDS =      -511.23372500
  atomic energy  EATOM  =      4067.34345142
  Solvation  Ediel_sol  =         0.00000000
  ---------------------------------------------------
  free energy    TOTEN  =       -37.57621881 eV

  energy without entropy =      -37.57621881  energy(sigma->0) =      -37.57621881


--------------------------------------------------------------------------------------------------------




--------------------------------------- Iteration      1(   6)  ---------------------------------------


    POTLOK:  cpu time   52.1680: real time   52.6324
    SETDIJ:  cpu time    0.0400: real time    0.0417
     EDDAV:  cpu time   27.1560: real time   27.8798
 BZINTS: Fermi energy: -4.075925; 66.000000 electrons
         Band energy:-759.250834;  BLOECHL correction: -0.019875
       DOS:  cpu time    0.0040: real time    0.0096
    CHARGE:  cpu time    2.1400: real time    2.1805
    MIXING:  cpu time    0.0440: real time    0.0422
    --------------------------------------------
      LOOP:  cpu time   81.5520: real time   82.7861

 eigenvalue-minimisations  :  1200
 total energy-change (2. order) :-0.4375936E+02  (-0.4750260E+02)
 number of electron      65.9999990 magnetization       7.0641545
 augmentation part        8.7581289 magnetization       6.5745907

 Broyden mixing:
  rms(total) = 0.54829E+01    rms(broyden)= 0.54828E+01
  rms(prec ) = 0.57065E+01
  weight for this iteration     100.00

 eigenvalues of (default mixing * dielectric matrix)
  average eigenvalue GAMMA=   0.3637
  0.3637

 Free energy of the ion-electron system (eV)
  ---------------------------------------------------
  alpha Z        PSCENC =        40.21073901
  Ewald energy   TEWEN  =      8617.63405943
  -Hartree energ DENC   =    -12103.43173440
  -exchange      EXHF   =         0.00000000
  -V(xc)+E(xc)   XCENC  =        54.56826090
  PAW double counting   =      2189.48920741    -2187.89873199
  entropy T*S    EENTRO =         0.00000000
  eigenvalues    EBANDS =      -759.25083381
  atomic energy  EATOM  =      4067.34345142
  Solvation  Ediel_sol  =         0.00000000
  ---------------------------------------------------
  free energy    TOTEN  =       -81.33558205 eV

  energy without entropy =      -81.33558205  energy(sigma->0) =      -81.33558205


--------------------------------------------------------------------------------------------------------




--------------------------------------- Iteration      1(   7)  ---------------------------------------


    POTLOK:  cpu time   51.6480: real time   52.4582
    SETDIJ:  cpu time    0.0440: real time    0.0428
     EDDAV:  cpu time   25.8160: real time   26.7269
 BZINTS: Fermi energy: -4.155668; 66.000000 electrons
         Band energy:-609.991156;  BLOECHL correction: -0.032481
       DOS:  cpu time    0.0040: real time    0.0071
    CHARGE:  cpu time    2.0600: real time    2.2045
    MIXING:  cpu time    0.0320: real time    0.0412
    --------------------------------------------
      LOOP:  cpu time   79.6040: real time   81.4807

 eigenvalue-minimisations  :  1152
 total energy-change (2. order) : 0.3695512E+02  (-0.5686431E+01)
 number of electron      65.9999990 magnetization       6.8975304
 augmentation part        7.6962819 magnetization       4.8576640

 Broyden mixing:
  rms(total) = 0.29114E+01    rms(broyden)= 0.29114E+01
  rms(prec ) = 0.30922E+01
  weight for this iteration     100.00

 eigenvalues of (default mixing * dielectric matrix)
  average eigenvalue GAMMA=   0.4629
  0.4629  0.4629

 Free energy of the ion-electron system (eV)
  ---------------------------------------------------
  alpha Z        PSCENC =        40.21073901
  Ewald energy   TEWEN  =      8617.63405943
  -Hartree energ DENC   =    -12190.12393201
  -exchange      EXHF   =         0.00000000
  -V(xc)+E(xc)   XCENC  =        53.63041820
  PAW double counting   =      2343.85347861    -2366.93752110
  entropy T*S    EENTRO =         0.00000000
  eigenvalues    EBANDS =      -609.99115585
  atomic energy  EATOM  =      4067.34345142
  Solvation  Ediel_sol  =         0.00000000
  ---------------------------------------------------
  free energy    TOTEN  =       -44.38046231 eV

  energy without entropy =      -44.38046231  energy(sigma->0) =      -44.38046231


--------------------------------------------------------------------------------------------------------




--------------------------------------- Iteration      1(   8)  ---------------------------------------


    POTLOK:  cpu time   51.1120: real time   52.5464
    SETDIJ:  cpu time    0.0440: real time    0.0421
     EDDAV:  cpu time   27.8120: real time   28.8921
 BZINTS: Fermi energy: -3.950249; 66.000000 electrons
         Band energy:-554.427313;  BLOECHL correction: -0.041565
       DOS:  cpu time    0.0040: real time    0.0072
    CHARGE:  cpu time    2.1480: real time    2.1540
    MIXING:  cpu time    0.0440: real time    0.0424
    --------------------------------------------
      LOOP:  cpu time   81.1640: real time   83.6841

 eigenvalue-minimisations  :  1248
 total energy-change (2. order) : 0.9537046E+01  (-0.1352924E+01)
 number of electron      65.9999990 magnetization       6.7479080
 augmentation part        6.2446043 magnetization       4.5286714

 Broyden mixing:
  rms(total) = 0.15173E+01    rms(broyden)= 0.15172E+01
  rms(prec ) = 0.16076E+01
  weight for this iteration     100.00

 eigenvalues of (default mixing * dielectric matrix)
  average eigenvalue GAMMA=   0.4916
  0.5426  0.5426  0.3896

 Free energy of the ion-electron system (eV)
  ---------------------------------------------------
  alpha Z        PSCENC =        40.21073901
  Ewald energy   TEWEN  =      8617.63405943
  -Hartree energ DENC   =    -12230.59510516
  -exchange      EXHF   =         0.00000000
  -V(xc)+E(xc)   XCENC  =        54.47420166
  PAW double counting   =      2414.17722643    -2443.66067650
  entropy T*S    EENTRO =         0.00000000
  eigenvalues    EBANDS =      -554.42731266
  atomic energy  EATOM  =      4067.34345142
  Solvation  Ediel_sol  =         0.00000000
  ---------------------------------------------------
  free energy    TOTEN  =       -34.84341638 eV

  energy without entropy =      -34.84341638  energy(sigma->0) =      -34.84341638


--------------------------------------------------------------------------------------------------------




--------------------------------------- Iteration      1(   9)  ---------------------------------------


    POTLOK:  cpu time   51.8720: real time   52.2743
    SETDIJ:  cpu time    0.0400: real time    0.0417
     EDDAV:  cpu time   34.0480: real time   34.0994
 BZINTS: Fermi energy: -3.791545; 66.000000 electrons
         Band energy:-538.370207;  BLOECHL correction: -0.013094
       DOS:  cpu time    0.0040: real time    0.0066
    CHARGE:  cpu time    2.1440: real time    2.1463
    MIXING:  cpu time    0.0440: real time    0.0417
    --------------------------------------------
      LOOP:  cpu time   88.1520: real time   88.6100

 eigenvalue-minimisations  :  1536
 total energy-change (2. order) : 0.1190284E+01  (-0.3227213E+00)
 number of electron      65.9999989 magnetization       6.6547618
 augmentation part        5.1034258 magnetization       4.2152380

 Broyden mixing:
  rms(total) = 0.54739E+00    rms(broyden)= 0.54695E+00
  rms(prec ) = 0.57501E+00
  weight for this iteration     100.00

 eigenvalues of (default mixing * dielectric matrix)
  average eigenvalue GAMMA=   0.5347
  0.5623  0.5623  0.5072  0.5072

 Free energy of the ion-electron system (eV)
  ---------------------------------------------------
  alpha Z        PSCENC =        40.21073901
  Ewald energy   TEWEN  =      8617.63405943
  -Hartree energ DENC   =    -12245.14995327
  -exchange      EXHF   =         0.00000000
  -V(xc)+E(xc)   XCENC  =        54.72942107
  PAW double counting   =      2442.26355824    -2472.31420104
  entropy T*S    EENTRO =         0.00000000
  eigenvalues    EBANDS =      -538.37020691
  atomic energy  EATOM  =      4067.34345142
  Solvation  Ediel_sol  =         0.00000000
  ---------------------------------------------------
  free energy    TOTEN  =       -33.65313205 eV

  energy without entropy =      -33.65313205  energy(sigma->0) =      -33.65313205


--------------------------------------------------------------------------------------------------------




--------------------------------------- Iteration      1(  10)  ---------------------------------------


    POTLOK:  cpu time   50.6640: real time   51.1357
    SETDIJ:  cpu time    0.0400: real time    0.0423
     EDDAV:  cpu time   26.6480: real time   27.0042
 BZINTS: Fermi energy: -3.919411; 66.000000 electrons
         Band energy:-550.537833;  BLOECHL correction: -0.033341
       DOS:  cpu time    0.0040: real time    0.0075
    CHARGE:  cpu time    2.0960: real time    2.1364
    MIXING:  cpu time    0.0400: real time    0.0428
    --------------------------------------------
      LOOP:  cpu time   79.4920: real time   80.3688

 eigenvalue-minimisations  :  1184
 total energy-change (2. order) :-0.8973253E+00  (-0.1223843E+00)
 number of electron      65.9999989 magnetization       6.1889042
 augmentation part        5.8957688 magnetization       3.7243125

 Broyden mixing:
  rms(total) = 0.11865E+01    rms(broyden)= 0.11864E+01
  rms(prec ) = 0.12589E+01
  weight for this iteration     100.00

 eigenvalues of (default mixing * dielectric matrix)
  average eigenvalue GAMMA=   0.6944
  0.8664  0.8664  0.6326  0.6326  0.4743

 Free energy of the ion-electron system (eV)
  ---------------------------------------------------
  alpha Z        PSCENC =        40.21073901
  Ewald energy   TEWEN  =      8617.63405943
  -Hartree energ DENC   =    -12234.63202010
  -exchange      EXHF   =         0.00000000
  -V(xc)+E(xc)   XCENC  =        54.44836927
  PAW double counting   =      2425.16971456    -2454.18693774
  entropy T*S    EENTRO =         0.00000000
  eigenvalues    EBANDS =      -550.53783315
  atomic energy  EATOM  =      4067.34345142
  Solvation  Ediel_sol  =         0.00000000
  ---------------------------------------------------
  free energy    TOTEN  =       -34.55045731 eV

  energy without entropy =      -34.55045731  energy(sigma->0) =      -34.55045731


--------------------------------------------------------------------------------------------------------




--------------------------------------- Iteration      1(  11)  ---------------------------------------


    POTLOK:  cpu time   50.9520: real time   50.9745
    SETDIJ:  cpu time    0.0480: real time    0.0480
     EDDAV:  cpu time   28.0240: real time   28.2466
 BZINTS: Fermi energy: -3.742317; 66.000000 electrons
         Band energy:-535.610380;  BLOECHL correction: -0.005119
       DOS:  cpu time    0.0040: real time    0.0068
    CHARGE:  cpu time    2.1480: real time    2.1541
    MIXING:  cpu time    0.0400: real time    0.0430
    --------------------------------------------
      LOOP:  cpu time   81.2160: real time   81.4731

 eigenvalue-minimisations  :  1248
 total energy-change (2. order) : 0.8099786E+00  (-0.9422273E-01)
 number of electron      65.9999989 magnetization       5.7584860
 augmentation part        5.0145926 magnetization       3.2260460

 Broyden mixing:
  rms(total) = 0.35630E+00    rms(broyden)= 0.35602E+00
  rms(prec ) = 0.37615E+00
  weight for this iteration     100.00

 eigenvalues of (default mixing * dielectric matrix)
  average eigenvalue GAMMA=   0.8914
  2.0828  0.6127  0.6127  0.8415  0.6993  0.4996

 Free energy of the ion-electron system (eV)
  ---------------------------------------------------
  alpha Z        PSCENC =        40.21073901
  Ewald energy   TEWEN  =      8617.63405943
  -Hartree energ DENC   =    -12249.16626374
  -exchange      EXHF   =         0.00000000
  -V(xc)+E(xc)   XCENC  =        54.68991805
  PAW double counting   =      2454.92158093    -2483.76358361
  entropy T*S    EENTRO =         0.00000000
  eigenvalues    EBANDS =      -535.61038017
  atomic energy  EATOM  =      4067.34345142
  Solvation  Ediel_sol  =         0.00000000
  ---------------------------------------------------
  free energy    TOTEN  =       -33.74047870 eV

  energy without entropy =      -33.74047870  energy(sigma->0) =      -33.74047870


--------------------------------------------------------------------------------------------------------




--------------------------------------- Iteration      1(  12)  ---------------------------------------


    POTLOK:  cpu time   50.3360: real time   50.9804
    SETDIJ:  cpu time    0.0440: real time    0.0421
     EDDAV:  cpu time   33.6720: real time   34.0454
 BZINTS: Fermi energy: -3.666449; 66.000000 electrons
         Band energy:-528.982631;  BLOECHL correction: -0.010241
       DOS:  cpu time    0.0080: real time    0.0076
    CHARGE:  cpu time    2.1640: real time    2.1711
    MIXING:  cpu time    0.0440: real time    0.0437
    --------------------------------------------
      LOOP:  cpu time   86.2680: real time   87.2903

 eigenvalue-minimisations  :  1536
 total energy-change (2. order) :-0.1303121E-01  (-0.4974906E-01)
 number of electron      65.9999989 magnetization       5.7335365
 augmentation part        4.4522234 magnetization       3.6784136

 Broyden mixing:
  rms(total) = 0.18091E+00    rms(broyden)= 0.18057E+00
  rms(prec ) = 0.19263E+00
  weight for this iteration     100.00

 eigenvalues of (default mixing * dielectric matrix)
  average eigenvalue GAMMA=   0.8967
  2.4056  0.8104  0.8104  0.6022  0.6022  0.5230  0.5230

 Free energy of the ion-electron system (eV)
  ---------------------------------------------------
  alpha Z        PSCENC =        40.21073901
  Ewald energy   TEWEN  =      8617.63405943
  -Hartree energ DENC   =    -12255.99387626
  -exchange      EXHF   =         0.00000000
  -V(xc)+E(xc)   XCENC  =        54.84895602
  PAW double counting   =      2467.92361180    -2496.73782055
  entropy T*S    EENTRO =         0.00000000
  eigenvalues    EBANDS =      -528.98263078
  atomic energy  EATOM  =      4067.34345142
  Solvation  Ediel_sol  =         0.00000000
  ---------------------------------------------------
  free energy    TOTEN  =       -33.75350991 eV

  energy without entropy =      -33.75350991  energy(sigma->0) =      -33.75350991


--------------------------------------------------------------------------------------------------------




--------------------------------------- Iteration      1(  13)  ---------------------------------------


    POTLOK:  cpu time   50.3680: real time   50.8148
    SETDIJ:  cpu time    0.0400: real time    0.0413
     EDDAV:  cpu time   24.5680: real time   24.6015
 BZINTS: Fermi energy: -3.673926; 66.000000 electrons
         Band energy:-529.183091;  BLOECHL correction: -0.008436
       DOS:  cpu time    0.0040: real time    0.0052
    CHARGE:  cpu time    2.1480: real time    2.1534
    MIXING:  cpu time    0.0480: real time    0.0446
    --------------------------------------------
      LOOP:  cpu time   77.1760: real time   77.6609

 eigenvalue-minimisations  :  1072
 total energy-change (2. order) :-0.7986171E-02  (-0.8386681E-02)
 number of electron      65.9999989 magnetization       5.5470177
 augmentation part        4.4603448 magnetization       3.4241799

 Broyden mixing:
  rms(total) = 0.16647E+00    rms(broyden)= 0.16646E+00
  rms(prec ) = 0.17738E+00
  weight for this iteration     100.00

 eigenvalues of (default mixing * dielectric matrix)
  average eigenvalue GAMMA=   0.8850
  2.5715  0.9055  0.9055  0.5932  0.5932  0.5546  0.5546  0.4021

 Free energy of the ion-electron system (eV)
  ---------------------------------------------------
  alpha Z        PSCENC =        40.21073901
  Ewald energy   TEWEN  =      8617.63405943
  -Hartree energ DENC   =    -12255.74999201
  -exchange      EXHF   =         0.00000000
  -V(xc)+E(xc)   XCENC  =        54.83726779
  PAW double counting   =      2467.45426262    -2496.30819302
  entropy T*S    EENTRO =         0.00000000
  eigenvalues    EBANDS =      -529.18309131
  atomic energy  EATOM  =      4067.34345142
  Solvation  Ediel_sol  =         0.00000000
  ---------------------------------------------------
  free energy    TOTEN  =       -33.76149608 eV

  energy without entropy =      -33.76149608  energy(sigma->0) =      -33.76149608


--------------------------------------------------------------------------------------------------------




--------------------------------------- Iteration      1(  14)  ---------------------------------------


    POTLOK:  cpu time   50.7800: real time   51.1315
    SETDIJ:  cpu time    0.0720: real time    0.0715
     EDDAV:  cpu time   27.8880: real time   28.0429
 BZINTS: Fermi energy: -3.664003; 66.000000 electrons
         Band energy:-529.332528;  BLOECHL correction: -0.006045
       DOS:  cpu time    0.0080: real time    0.0075
    CHARGE:  cpu time    2.1400: real time    2.1461
    MIXING:  cpu time    0.0560: real time    0.0582
    --------------------------------------------
      LOOP:  cpu time   80.9440: real time   81.4577

 eigenvalue-minimisations  :  1232
 total energy-change (2. order) :-0.1411373E-01  (-0.2953530E-02)
 number of electron      65.9999989 magnetization       5.0869045
 augmentation part        4.5570716 magnetization       2.8559412

 Broyden mixing:
  rms(total) = 0.11167E+00    rms(broyden)= 0.11167E+00
  rms(prec ) = 0.11591E+00
  weight for this iteration     100.00

 eigenvalues of (default mixing * dielectric matrix)
  average eigenvalue GAMMA=   0.9468
  2.6297  1.4620  0.5932  0.5932  0.7241  0.7241  0.6916  0.6414  0.4622

 Free energy of the ion-electron system (eV)
  ---------------------------------------------------
  alpha Z        PSCENC =        40.21073901
  Ewald energy   TEWEN  =      8617.63405943
  -Hartree energ DENC   =    -12255.46391995
  -exchange      EXHF   =         0.00000000
  -V(xc)+E(xc)   XCENC  =        54.85341722
  PAW double counting   =      2466.03999093    -2495.06081951
  entropy T*S    EENTRO =         0.00000000
  eigenvalues    EBANDS =      -529.33252835
  atomic energy  EATOM  =      4067.34345142
  Solvation  Ediel_sol  =         0.00000000
  ---------------------------------------------------
  free energy    TOTEN  =       -33.77560981 eV

  energy without entropy =      -33.77560981  energy(sigma->0) =      -33.77560981


--------------------------------------------------------------------------------------------------------




--------------------------------------- Iteration      1(  15)  ---------------------------------------


    POTLOK:  cpu time   50.9680: real time   51.2703
    SETDIJ:  cpu time    0.0400: real time    0.0408
     EDDAV:  cpu time   27.0840: real time   27.2938
 BZINTS: Fermi energy: -3.677197; 66.000000 electrons
         Band energy:-531.392769;  BLOECHL correction: -0.007525
       DOS:  cpu time    0.0080: real time    0.0072
    CHARGE:  cpu time    2.1920: real time    2.1982
    MIXING:  cpu time    0.0480: real time    0.0464
    --------------------------------------------
      LOOP:  cpu time   80.3400: real time   80.8568

 eigenvalue-minimisations  :  1200
 total energy-change (2. order) :-0.6910821E-01  (-0.1046548E-01)
 number of electron      65.9999989 magnetization       4.8055847
 augmentation part        4.8424080 magnetization       2.4236459

 Broyden mixing:
  rms(total) = 0.20429E+00    rms(broyden)= 0.20425E+00
  rms(prec ) = 0.21423E+00
  weight for this iteration     100.00

 eigenvalues of (default mixing * dielectric matrix)
  average eigenvalue GAMMA=   1.0551
  3.1430  1.5947  1.1799  1.1799  0.5924  0.5924  0.6048  0.6048  0.4688  0.5904

 Free energy of the ion-electron system (eV)
  ---------------------------------------------------
  alpha Z        PSCENC =        40.21073901
  Ewald energy   TEWEN  =      8617.63405943
  -Hartree energ DENC   =    -12253.40431726
  -exchange      EXHF   =         0.00000000
  -V(xc)+E(xc)   XCENC  =        54.83864589
  PAW double counting   =      2459.64464683    -2488.71917454
  entropy T*S    EENTRO =         0.00000000
  eigenvalues    EBANDS =      -531.39276879
  atomic energy  EATOM  =      4067.34345142
  Solvation  Ediel_sol  =         0.00000000
  ---------------------------------------------------
  free energy    TOTEN  =       -33.84471802 eV

  energy without entropy =      -33.84471802  energy(sigma->0) =      -33.84471802


--------------------------------------------------------------------------------------------------------




--------------------------------------- Iteration      1(  16)  ---------------------------------------


    POTLOK:  cpu time   50.7600: real time   50.9252
    SETDIJ:  cpu time    0.0400: real time    0.0409
     EDDAV:  cpu time   29.1040: real time   29.2731
 BZINTS: Fermi energy: -3.652328; 66.000000 electrons
         Band energy:-529.205101;  BLOECHL correction: -0.008572
       DOS:  cpu time    0.0080: real time    0.0072
    CHARGE:  cpu time    2.1760: real time    2.2021
    MIXING:  cpu time    0.0480: real time    0.0488
    --------------------------------------------
      LOOP:  cpu time   82.1360: real time   82.4974

 eigenvalue-minimisations  :  1296
 total energy-change (2. order) :-0.4404363E-02  (-0.4570520E-02)
 number of electron      65.9999989 magnetization       4.3457973
 augmentation part        4.6711811 magnetization       2.0875618

 Broyden mixing:
  rms(total) = 0.10790E+00    rms(broyden)= 0.10788E+00
  rms(prec ) = 0.10930E+00
  weight for this iteration     100.00

 eigenvalues of (default mixing * dielectric matrix)
  average eigenvalue GAMMA=   1.2785
  5.3184  2.4018  0.5913  0.5913  1.0314  0.7992  0.7992  0.8661  0.6520  0.4519
  0.5605

 Free energy of the ion-electron system (eV)
  ---------------------------------------------------
  alpha Z        PSCENC =        40.21073901
  Ewald energy   TEWEN  =      8617.63405943
  -Hartree energ DENC   =    -12255.70222227
  -exchange      EXHF   =         0.00000000
  -V(xc)+E(xc)   XCENC  =        54.87277643
  PAW double counting   =      2462.56673061    -2491.56955606
  entropy T*S    EENTRO =         0.00000000
  eigenvalues    EBANDS =      -529.20510095
  atomic energy  EATOM  =      4067.34345142
  Solvation  Ediel_sol  =         0.00000000
  ---------------------------------------------------
  free energy    TOTEN  =       -33.84912238 eV

  energy without entropy =      -33.84912238  energy(sigma->0) =      -33.84912238


--------------------------------------------------------------------------------------------------------




--------------------------------------- Iteration      1(  17)  ---------------------------------------


    POTLOK:  cpu time   50.4800: real time   50.9138
    SETDIJ:  cpu time    0.0440: real time    0.0424
     EDDAV:  cpu time   24.9320: real time   25.0338
 BZINTS: Fermi energy: -3.639349; 66.000000 electrons
         Band energy:-528.077571;  BLOECHL correction: -0.014229
       DOS:  cpu time    0.0040: real time    0.0072
    CHARGE:  cpu time    2.1560: real time    2.1601
    MIXING:  cpu time    0.0480: real time    0.0482
    --------------------------------------------
      LOOP:  cpu time   77.6640: real time   78.2055

 eigenvalue-minimisations  :  1088
 total energy-change (2. order) :-0.2353479E-01  (-0.1653965E-02)
 number of electron      65.9999989 magnetization       4.1997080
 augmentation part        4.5674830 magnetization       2.3454869

 Broyden mixing:
  rms(total) = 0.12310E+00    rms(broyden)= 0.12310E+00
  rms(prec ) = 0.12736E+00
  weight for this iteration     100.00

 eigenvalues of (default mixing * dielectric matrix)
  average eigenvalue GAMMA=   1.3472
  6.8091  2.4624  1.1397  0.8319  0.8319  0.5909  0.5909  0.8395  0.6509  0.5136
  0.4526  0.4526

 Free energy of the ion-electron system (eV)
  ---------------------------------------------------
  alpha Z        PSCENC =        40.21073901
  Ewald energy   TEWEN  =      8617.63405943
  -Hartree energ DENC   =    -12256.50707652
  -exchange      EXHF   =         0.00000000
  -V(xc)+E(xc)   XCENC  =        54.86583510
  PAW double counting   =      2462.13539891    -2491.47749383
  entropy T*S    EENTRO =         0.00000000
  eigenvalues    EBANDS =      -528.07757068
  atomic energy  EATOM  =      4067.34345142
  Solvation  Ediel_sol  =         0.00000000
  ---------------------------------------------------
  free energy    TOTEN  =       -33.87265717 eV

  energy without entropy =      -33.87265717  energy(sigma->0) =      -33.87265717


--------------------------------------------------------------------------------------------------------




--------------------------------------- Iteration      1(  18)  ---------------------------------------


    POTLOK:  cpu time   50.6960: real time   50.7730
    SETDIJ:  cpu time    0.0360: real time    0.0422
     EDDAV:  cpu time   26.8560: real time   27.0520
 BZINTS: Fermi energy: -3.647197; 66.000000 electrons
         Band energy:-528.622417;  BLOECHL correction: -0.015149
       DOS:  cpu time    0.0040: real time    0.0074
    CHARGE:  cpu time    2.1360: real time    2.1519
    MIXING:  cpu time    0.0520: real time    0.0495
    --------------------------------------------
      LOOP:  cpu time   79.7800: real time   80.0759

 eigenvalue-minimisations  :  1184
 total energy-change (2. order) :-0.2276442E-02  (-0.6276427E-03)
 number of electron      65.9999989 magnetization       4.0358901
 augmentation part        4.6449725 magnetization       2.2351541

 Broyden mixing:
  rms(total) = 0.12146E+00    rms(broyden)= 0.12145E+00
  rms(prec ) = 0.12309E+00
  weight for this iteration     100.00

 eigenvalues of (default mixing * dielectric matrix)
  average eigenvalue GAMMA=   1.3730
  7.7301  2.4871  1.1489  0.7623  0.7623  0.5927  0.5927  0.8466  0.6274  0.6274
  0.4535  0.6573  0.5611

 Free energy of the ion-electron system (eV)
  ---------------------------------------------------
  alpha Z        PSCENC =        40.21073901
  Ewald energy   TEWEN  =      8617.63405943
  -Hartree energ DENC   =    -12255.88565288
  -exchange      EXHF   =         0.00000000
  -V(xc)+E(xc)   XCENC  =        54.83562947
  PAW double counting   =      2460.72478042    -2490.11552356
  entropy T*S    EENTRO =         0.00000000
  eigenvalues    EBANDS =      -528.62241691
  atomic energy  EATOM  =      4067.34345142
  Solvation  Ediel_sol  =         0.00000000
  ---------------------------------------------------
  free energy    TOTEN  =       -33.87493361 eV

  energy without entropy =      -33.87493361  energy(sigma->0) =      -33.87493361


--------------------------------------------------------------------------------------------------------




--------------------------------------- Iteration      1(  19)  ---------------------------------------


    POTLOK:  cpu time   50.7680: real time   50.9700
    SETDIJ:  cpu time    0.0400: real time    0.0416
     EDDAV:  cpu time   28.5080: real time   28.6805
 BZINTS: Fermi energy: -3.655796; 66.000000 electrons
         Band energy:-528.825295;  BLOECHL correction: -0.015903
       DOS:  cpu time    0.0040: real time    0.0070
    CHARGE:  cpu time    2.1720: real time    2.1802
    MIXING:  cpu time    0.0480: real time    0.0504
    --------------------------------------------
      LOOP:  cpu time   81.5400: real time   81.9297

 eigenvalue-minimisations  :  1264
 total energy-change (2. order) :-0.6973859E-02  (-0.2661838E-03)
 number of electron      65.9999989 magnetization       3.7660785
 augmentation part        4.6676160 magnetization       2.0154174

 Broyden mixing:
  rms(total) = 0.12022E+00    rms(broyden)= 0.12022E+00
  rms(prec ) = 0.12208E+00
  weight for this iteration     100.00

 eigenvalues of (default mixing * dielectric matrix)
  average eigenvalue GAMMA=   1.4958
  9.5156  2.6536  0.9742  0.9742  1.0622  1.0622  0.5917  0.5917  0.7197  0.7197
  0.5824  0.5393  0.4775  0.4775

 Free energy of the ion-electron system (eV)
  ---------------------------------------------------
  alpha Z        PSCENC =        40.21073901
  Ewald energy   TEWEN  =      8617.63405943
  -Hartree energ DENC   =    -12255.71626275
  -exchange      EXHF   =         0.00000000
  -V(xc)+E(xc)   XCENC  =        54.80673557
  PAW double counting   =      2460.48215875    -2489.81749416
  entropy T*S    EENTRO =         0.00000000
  eigenvalues    EBANDS =      -528.82529473
  atomic energy  EATOM  =      4067.34345142
  Solvation  Ediel_sol  =         0.00000000
  ---------------------------------------------------
  free energy    TOTEN  =       -33.88190747 eV

  energy without entropy =      -33.88190747  energy(sigma->0) =      -33.88190747


--------------------------------------------------------------------------------------------------------




--------------------------------------- Iteration      1(  20)  ---------------------------------------


    POTLOK:  cpu time   50.5840: real time   50.9669
    SETDIJ:  cpu time    0.0400: real time    0.0422
     EDDAV:  cpu time   25.9320: real time   26.1694
 BZINTS: Fermi energy: -3.668327; 66.000000 electrons
         Band energy:-528.861131;  BLOECHL correction: -0.016893
       DOS:  cpu time    0.0080: real time    0.0076
    CHARGE:  cpu time    2.1520: real time    2.1584
    MIXING:  cpu time    0.0520: real time    0.0518
    --------------------------------------------
      LOOP:  cpu time   78.7680: real time   79.3964

 eigenvalue-minimisations  :  1136
 total energy-change (2. order) :-0.8287448E-02  (-0.3241694E-03)
 number of electron      65.9999989 magnetization       3.5433779
 augmentation part        4.6599254 magnetization       1.9044074

 Broyden mixing:
  rms(total) = 0.10194E+00    rms(broyden)= 0.10193E+00
  rms(prec ) = 0.10367E+00
  weight for this iteration     100.00

 eigenvalues of (default mixing * dielectric matrix)
  average eigenvalue GAMMA=   1.6598
 11.6963  2.7260  1.3006  1.3006  1.1147  1.1147  0.5916  0.5916  0.8268  0.8268
  0.5738  0.5738  0.5976  0.5976  0.4647

 Free energy of the ion-electron system (eV)
  ---------------------------------------------------
  alpha Z        PSCENC =        40.21073901
  Ewald energy   TEWEN  =      8617.63405943
  -Hartree energ DENC   =    -12255.69076718
  -exchange      EXHF   =         0.00000000
  -V(xc)+E(xc)   XCENC  =        54.75908735
  PAW double counting   =      2460.66411602    -2489.94974978
  entropy T*S    EENTRO =         0.00000000
  eigenvalues    EBANDS =      -528.86113118
  atomic energy  EATOM  =      4067.34345142
  Solvation  Ediel_sol  =         0.00000000
  ---------------------------------------------------
  free energy    TOTEN  =       -33.89019492 eV

  energy without entropy =      -33.89019492  energy(sigma->0) =      -33.89019492


--------------------------------------------------------------------------------------------------------




--------------------------------------- Iteration      1(  21)  ---------------------------------------


    POTLOK:  cpu time   50.6360: real time   50.8365
    SETDIJ:  cpu time    0.0400: real time    0.0410
     EDDAV:  cpu time   28.1400: real time   28.3029
 BZINTS: Fermi energy: -3.682618; 66.000000 electrons
         Band energy:-529.136762;  BLOECHL correction: -0.017559
       DOS:  cpu time    0.0080: real time    0.0070
    CHARGE:  cpu time    2.1440: real time    2.1496
    MIXING:  cpu time    0.0560: real time    0.0542
    --------------------------------------------
      LOOP:  cpu time   81.0240: real time   81.3912

 eigenvalue-minimisations  :  1248
 total energy-change (2. order) :-0.4912178E-02  (-0.3693318E-03)
 number of electron      65.9999989 magnetization       3.2867684
 augmentation part        4.6518621 magnetization       1.7400430

 Broyden mixing:
  rms(total) = 0.81266E-01    rms(broyden)= 0.81264E-01
  rms(prec ) = 0.82651E-01
  weight for this iteration     100.00

 eigenvalues of (default mixing * dielectric matrix)
  average eigenvalue GAMMA=   1.8605
 14.8285  2.6448  1.8285  1.8285  0.9230  0.9230  0.9886  0.9886  0.5916  0.5916
  0.6994  0.6994  0.4679  0.5753  0.5753  0.6135

 Free energy of the ion-electron system (eV)
  ---------------------------------------------------
  alpha Z        PSCENC =        40.21073901
  Ewald energy   TEWEN  =      8617.63405943
  -Hartree energ DENC   =    -12255.45085483
  -exchange      EXHF   =         0.00000000
  -V(xc)+E(xc)   XCENC  =        54.70737983
  PAW double counting   =      2461.08388083    -2490.28700102
  entropy T*S    EENTRO =         0.00000000
  eigenvalues    EBANDS =      -529.13676177
  atomic energy  EATOM  =      4067.34345142
  Solvation  Ediel_sol  =         0.00000000
  ---------------------------------------------------
  free energy    TOTEN  =       -33.89510710 eV

  energy without entropy =      -33.89510710  energy(sigma->0) =      -33.89510710


--------------------------------------------------------------------------------------------------------




--------------------------------------- Iteration      1(  22)  ---------------------------------------


    POTLOK:  cpu time   50.7840: real time   50.9810
    SETDIJ:  cpu time    0.0560: real time    0.0556
     EDDAV:  cpu time   28.9720: real time   29.1895
 BZINTS: Fermi energy: -3.697852; 66.000000 electrons
         Band energy:-529.421871;  BLOECHL correction: -0.018157
       DOS:  cpu time    0.0040: real time    0.0071
    CHARGE:  cpu time    2.0560: real time    2.1359
    MIXING:  cpu time    0.0600: real time    0.0596
    --------------------------------------------
      LOOP:  cpu time   81.9320: real time   82.4287

 eigenvalue-minimisations  :  1296
 total energy-change (2. order) :-0.4943539E-02  (-0.4239360E-03)
 number of electron      65.9999989 magnetization       2.8678548
 augmentation part        4.6274969 magnetization       1.4487259

 Broyden mixing:
  rms(total) = 0.55647E-01    rms(broyden)= 0.55643E-01
  rms(prec ) = 0.56860E-01
  weight for this iteration     100.00

 eigenvalues of (default mixing * dielectric matrix)
  average eigenvalue GAMMA=   2.0941
 18.9299  2.6091  2.6091  1.9310  0.9517  0.9517  0.5917  0.5917  0.8988  0.8988
  0.9021  0.9021  0.4667  0.5682  0.5682  0.6378  0.5902

 Free energy of the ion-electron system (eV)
  ---------------------------------------------------
  alpha Z        PSCENC =        40.21073901
  Ewald energy   TEWEN  =      8617.63405943
  -Hartree energ DENC   =    -12255.17696460
  -exchange      EXHF   =         0.00000000
  -V(xc)+E(xc)   XCENC  =        54.65502461
  PAW double counting   =      2461.78495704    -2490.92944687
  entropy T*S    EENTRO =         0.00000000
  eigenvalues    EBANDS =      -529.42187067
  atomic energy  EATOM  =      4067.34345142
  Solvation  Ediel_sol  =         0.00000000
  ---------------------------------------------------
  free energy    TOTEN  =       -33.90005064 eV

  energy without entropy =      -33.90005064  energy(sigma->0) =      -33.90005064


--------------------------------------------------------------------------------------------------------




--------------------------------------- Iteration      1(  23)  ---------------------------------------


    POTLOK:  cpu time   50.6040: real time   50.8899
    SETDIJ:  cpu time    0.0400: real time    0.0417
     EDDAV:  cpu time   28.5280: real time   28.6505
 BZINTS: Fermi energy: -3.727367; 66.000000 electrons
         Band energy:-530.375368;  BLOECHL correction: -0.019351
       DOS:  cpu time    0.0040: real time    0.0064
    CHARGE:  cpu time    2.1840: real time    2.1872
    MIXING:  cpu time    0.0600: real time    0.0573
    --------------------------------------------
      LOOP:  cpu time   81.4200: real time   81.8330

 eigenvalue-minimisations  :  1264
 total energy-change (2. order) :-0.5801187E-02  (-0.9367806E-03)
 number of electron      65.9999989 magnetization       2.7117707
 augmentation part        4.6370613 magnetization       1.4948888

 Broyden mixing:
  rms(total) = 0.27143E-01    rms(broyden)= 0.27109E-01
  rms(prec ) = 0.27632E-01
  weight for this iteration     100.00

 eigenvalues of (default mixing * dielectric matrix)
  average eigenvalue GAMMA=   2.1319
 20.5039  2.8799  2.8799  1.7155  1.1499  0.9523  0.9523  0.9704  0.9704  0.5917
  0.5917  0.4671  0.5906  0.5906  0.6575  0.6575  0.6266  0.6266

 Free energy of the ion-electron system (eV)
  ---------------------------------------------------
  alpha Z        PSCENC =        40.21073901
  Ewald energy   TEWEN  =      8617.63405943
  -Hartree energ DENC   =    -12254.25277142
  -exchange      EXHF   =         0.00000000
  -V(xc)+E(xc)   XCENC  =        54.56509223
  PAW double counting   =      2461.95432912    -2490.98538339
  entropy T*S    EENTRO =         0.00000000
  eigenvalues    EBANDS =      -530.37536822
  atomic energy  EATOM  =      4067.34345142
  Solvation  Ediel_sol  =         0.00000000
  ---------------------------------------------------
  free energy    TOTEN  =       -33.90585182 eV

  energy without entropy =      -33.90585182  energy(sigma->0) =      -33.90585182


--------------------------------------------------------------------------------------------------------




--------------------------------------- Iteration      1(  24)  ---------------------------------------


    POTLOK:  cpu time   50.8800: real time   51.0174
    SETDIJ:  cpu time    0.0400: real time    0.0413
     EDDAV:  cpu time   29.3920: real time   29.5656
 BZINTS: Fermi energy: -3.738389; 66.000000 electrons
         Band energy:-530.821649;  BLOECHL correction: -0.019153
       DOS:  cpu time    0.0040: real time    0.0068
    CHARGE:  cpu time    2.1120: real time    2.1493
    MIXING:  cpu time    0.0600: real time    0.0601
    --------------------------------------------
      LOOP:  cpu time   82.4880: real time   82.8406

 eigenvalue-minimisations  :  1312
 total energy-change (2. order) :-0.1500323E-02  (-0.2022154E-03)
 number of electron      65.9999989 magnetization       2.6241331
 augmentation part        4.6422836 magnetization       1.5034323

 Broyden mixing:
  rms(total) = 0.22861E-01    rms(broyden)= 0.22849E-01
  rms(prec ) = 0.23400E-01
  weight for this iteration     100.00

 eigenvalues of (default mixing * dielectric matrix)
  average eigenvalue GAMMA=   2.1159
[...]
     34      -1.9362      0.00000
     35      -1.8256      0.00000
     36      -1.1173      0.00000
     37      -0.9178      0.00000
     38       0.1573      0.00000
     39       0.2545      0.00000
     40       0.3854      0.00000
     41       1.0045      0.00000
     42       1.1067      0.00000
     43       2.0372      0.00000
     44       2.2490      0.00000
     45       2.3759      0.00000
     46       2.8330      0.00000
     47       3.1180      0.00000
     48       3.2081      0.00000

 k-point     5 :      -0.4000    0.2000    0.0000
  band No.  band energies     occupation 
      1     -17.9149      1.00000
      2     -16.7562      1.00000
      3     -16.4483      1.00000
      4     -16.1296      1.00000
      5     -15.8741      1.00000
      6     -15.7417      1.00000
      7     -12.9944      1.00000
      8     -11.4394      1.00000
      9      -8.6127      1.00000
     10      -8.2309      1.00000
     11      -8.2047      1.00000
     12      -7.7688      1.00000
     13      -7.4029      1.00000
     14      -6.6807      1.00000
     15      -6.1771      1.00000
     16      -5.9054      1.00000
     17      -5.8948      1.00000
     18      -5.7753      1.00000
     19      -5.7704      1.00000
     20      -5.4387      1.00000
     21      -5.2011      1.00000
     22      -4.7145      1.00000
     23      -4.5305      1.00000
     24      -4.4299      1.00000
     25      -4.2899      1.00000
     26      -4.1437      1.00000
     27      -3.8999      1.00000
     28      -3.8825      1.00000
     29      -3.5978      1.00000
     30      -3.5811      1.00000
     31      -3.4838      1.00000
     32      -2.5650      1.00000
     33      -2.3033      0.03577
     34      -2.0467      0.00000
     35      -1.6373      0.00000
     36      -1.5208      0.00000
     37      -1.0034      0.00000
     38      -0.2640      0.00000
     39       0.2184      0.00000
     40       0.3975      0.00000
     41       0.5519      0.00000
     42       0.9872      0.00000
     43       2.4417      0.00000
     44       2.6600      0.00000
     45       2.8171      0.00000
     46       2.8600      0.00000
     47       2.9593      0.00000
     48       3.4203      0.00000


--------------------------------------------------------------------------------------------------------


 soft charge-density along one line, spin component           1
         0         1         2         3         4         5         6         7         8         9
 total charge-density along one line

 soft charge-density along one line, spin component           2
         0         1         2         3         4         5         6         7         8         9
 total charge-density along one line

 pseudopotential strength for first ion, spin component:           1
-10.513  -0.132  -0.000   0.000  -0.000   1.366   0.055   0.000
 -0.132 -10.655   0.000  -0.000   0.000   0.055   1.424  -0.000
 -0.000   0.000 -10.427   0.000  -0.000   0.000  -0.000   1.330
  0.000  -0.000   0.000 -10.655   0.132  -0.000   0.000  -0.000
 -0.000   0.000  -0.000   0.132 -10.513   0.000  -0.000  -0.000
  1.366   0.055   0.000  -0.000   0.000   0.748  -0.023  -0.000
  0.055   1.424  -0.000   0.000  -0.000  -0.023   0.724   0.000
  0.000  -0.000   1.330  -0.000  -0.000  -0.000   0.000   0.764
 -0.000   0.000  -0.000   1.424  -0.055   0.000  -0.000   0.000
  0.000  -0.000  -0.000  -0.055   1.366  -0.000   0.000   0.000
  0.000  -0.000   0.004  -0.000   0.000   0.000  -0.000  -0.001
 -0.000   0.000  -0.000   0.000  -0.000   0.000  -0.000   0.000
 -0.000  -0.000   0.000  -0.000   0.001  -0.000   0.000  -0.000
 -0.000  -0.000  -0.000  -0.000   0.000  -0.000   0.000   0.000
  0.001  -0.000   0.000  -0.000  -0.000  -0.000  -0.000  -0.000
  0.000   0.000  -0.000   0.000  -0.001   0.000  -0.000   0.000
  0.000   0.000  -0.000   0.000  -0.000  -0.000  -0.000  -0.000
 -0.001   0.000  -0.000   0.000   0.000   0.000  -0.000   0.000
 pseudopotential strength for first ion, spin component:           2
-10.045   0.042  -0.000  -0.000  -0.000   1.166  -0.015   0.000
  0.042 -10.009   0.000  -0.000  -0.000  -0.015   1.153  -0.000
 -0.000   0.000 -10.073   0.000   0.000   0.000  -0.000   1.175
 -0.000  -0.000   0.000 -10.010  -0.042   0.000   0.000  -0.000
 -0.000  -0.000   0.000  -0.042 -10.045   0.000   0.000  -0.000
  1.166  -0.015   0.000   0.000   0.000   0.834   0.005  -0.000
 -0.015   1.153  -0.000   0.000   0.000   0.005   0.838   0.000
  0.000  -0.000   1.175  -0.000  -0.000  -0.000   0.000   0.831
  0.000   0.000  -0.000   1.153   0.015  -0.000  -0.000   0.000
  0.000   0.000  -0.000   0.015   1.166  -0.000  -0.000   0.000
  0.000  -0.000  -0.001  -0.000   0.000   0.000  -0.000   0.001
 -0.000   0.000  -0.000   0.000  -0.000   0.000  -0.000  -0.000
  0.000  -0.000   0.000  -0.000   0.001  -0.000   0.000  -0.000
 -0.000  -0.000  -0.000  -0.000  -0.000  -0.000   0.000   0.000
  0.001  -0.000   0.000  -0.000  -0.000  -0.000  -0.000  -0.000
  0.000  -0.000  -0.000   0.000  -0.001   0.000   0.000   0.000
  0.000   0.000  -0.000   0.000   0.000  -0.000  -0.000   0.000
 -0.001   0.000  -0.000  -0.000   0.000   0.000  -0.000   0.000
 total augmentation occupancy for first ion, spin component:           1
  1.816  -0.158   0.000   0.000  -0.000   0.024   0.059  -0.000  -0.000   0.000  -0.000  -0.000   0.000  -0.000   0.011   0.000
 -0.158   1.669  -0.000  -0.000   0.000   0.058   0.086   0.000   0.000  -0.000   0.000   0.000  -0.000   0.000   0.003   0.000
  0.000  -0.000   1.948  -0.000  -0.000  -0.000   0.000  -0.032   0.000   0.000  -0.006  -0.005  -0.000  -0.000   0.000   0.000
  0.000  -0.000  -0.000   1.669   0.158  -0.000  -0.000   0.000   0.086  -0.058  -0.000  -0.000  -0.003   0.000  -0.000   0.000
 -0.000   0.000  -0.000   0.158   1.816  -0.000  -0.000   0.000  -0.059   0.024   0.000   0.000   0.011   0.000  -0.000  -0.000
  0.024   0.058  -0.000  -0.000  -0.000   0.079   0.068   0.000  -0.000  -0.000   0.000  -0.000  -0.000   0.000   0.001   0.000
  0.059   0.086   0.000  -0.000  -0.000   0.068   0.145   0.000  -0.000  -0.000   0.000   0.000  -0.000  -0.000  -0.001   0.000
 -0.000   0.000  -0.032   0.000   0.000   0.000   0.000   0.052   0.000  -0.000   0.021  -0.011  -0.000   0.000   0.000   0.000
 -0.000   0.000   0.000   0.086  -0.059  -0.000  -0.000   0.000   0.145  -0.068   0.000  -0.000   0.001  -0.000  -0.000  -0.000
  0.000  -0.000   0.000  -0.058   0.024  -0.000  -0.000  -0.000  -0.068   0.079  -0.000   0.000   0.001  -0.000   0.000  -0.001
 -0.000   0.000  -0.006   0.000   0.000   0.000   0.000   0.021   0.000  -0.000   0.954  -0.287   0.000  -0.000  -0.000   0.000
 -0.000  -0.000  -0.005  -0.000   0.000  -0.000  -0.000  -0.011  -0.000   0.000  -0.287   0.140   0.000  -0.000  -0.000   0.000
  0.000  -0.000  -0.000  -0.003   0.011  -0.000  -0.000  -0.000   0.001   0.001   0.000   0.000   0.170   0.000  -0.000  -0.013
 -0.000   0.000  -0.000   0.000   0.000   0.000  -0.000   0.000   0.000  -0.000  -0.000  -0.000   0.000   0.179   0.000  -0.000
  0.011   0.003   0.000  -0.000  -0.000   0.001  -0.001   0.000  -0.000   0.000  -0.000  -0.000  -0.000   0.000   0.170   0.000
  0.000   0.000   0.000   0.000  -0.000   0.000   0.000   0.000  -0.000  -0.001   0.000   0.000  -0.013  -0.000   0.000   0.002
  0.000   0.000   0.000   0.000  -0.000  -0.000   0.000  -0.000   0.000   0.000  -0.000   0.000  -0.000  -0.015  -0.000   0.000
 -0.000  -0.000  -0.000   0.000  -0.000  -0.001   0.000  -0.000   0.000  -0.000   0.000  -0.000  -0.000  -0.000  -0.013  -0.000
 total augmentation occupancy for first ion, spin component:           2
  0.064   0.103   0.000  -0.000  -0.000  -0.055  -0.044  -0.000   0.000  -0.000   0.000   0.000   0.000  -0.000  -0.001  -0.000
  0.103   0.170   0.000  -0.000  -0.000  -0.044  -0.102  -0.000  -0.000   0.000  -0.000  -0.000   0.000   0.000  -0.000   0.000
  0.000   0.000  -0.002   0.000  -0.000  -0.000  -0.000  -0.027  -0.000   0.000   0.003   0.002   0.000  -0.000  -0.000  -0.000
 -0.000  -0.000   0.000   0.170  -0.103   0.000   0.000  -0.000  -0.102   0.044  -0.000  -0.000   0.000   0.000   0.000  -0.000
 -0.000  -0.000  -0.000  -0.103   0.064   0.000   0.000   0.000   0.044  -0.055  -0.000  -0.000  -0.001   0.000  -0.000   0.000
 -0.055  -0.044  -0.000   0.000   0.000   0.011   0.016   0.000  -0.000  -0.000  -0.000   0.000  -0.000   0.000  -0.000  -0.000
 -0.044  -0.102  -0.000   0.000   0.000   0.016   0.028   0.000  -0.000  -0.000   0.000   0.000  -0.000  -0.000  -0.000  -0.000
 -0.000  -0.000  -0.027  -0.000   0.000   0.000   0.000   0.002   0.000  -0.000  -0.000   0.000   0.000   0.000  -0.000   0.000
  0.000  -0.000  -0.000  -0.102   0.044  -0.000  -0.000   0.000   0.028  -0.016   0.000   0.000   0.000  -0.000  -0.000   0.000
 -0.000   0.000   0.000   0.044  -0.055  -0.000  -0.000  -0.000  -0.016   0.011   0.000  -0.000  -0.000  -0.000   0.000  -0.000
  0.000  -0.000   0.003  -0.000  -0.000  -0.000   0.000  -0.000   0.000   0.000   0.005   0.019   0.000  -0.000  -0.000   0.000
  0.000  -0.000   0.002  -0.000  -0.000   0.000   0.000   0.000   0.000  -0.000   0.019  -0.012   0.000  -0.000   0.000   0.000
  0.000   0.000   0.000   0.000  -0.001  -0.000  -0.000   0.000   0.000  -0.000   0.000   0.000   0.000   0.000  -0.000   0.001
 -0.000   0.000  -0.000   0.000   0.000   0.000  -0.000   0.000  -0.000  -0.000  -0.000  -0.000   0.000   0.001   0.000   0.000
 -0.001  -0.000  -0.000   0.000  -0.000  -0.000  -0.000  -0.000  -0.000   0.000  -0.000   0.000  -0.000   0.000   0.000   0.000
 -0.000   0.000  -0.000  -0.000   0.000  -0.000  -0.000   0.000   0.000  -0.000  -0.000   0.000   0.001   0.000   0.000  -0.000
  0.000  -0.000   0.000  -0.000  -0.000   0.000   0.000   0.000   0.000  -0.000   0.000  -0.000   0.000   0.001   0.000  -0.000
  0.000   0.000   0.000   0.000   0.000  -0.000  -0.000  -0.000  -0.000   0.000   0.000   0.000  -0.000   0.000   0.001   0.000


------------------------ aborting loop because EDIFF is reached ----------------------------------------





 total charge     

# of ion       s       p       d       tot
------------------------------------------
    1        0.372   0.398   8.379   9.149
    2        0.372   0.398   8.379   9.149
    3        1.039   1.370   0.000   2.409
    4        1.039   1.370   0.000   2.409
    5        1.502   2.264   0.051   3.817
    6        1.490   2.239   0.054   3.782
    7        1.498   2.256   0.052   3.806
    8        1.502   2.264   0.051   3.817
    9        1.490   2.239   0.054   3.782
   10        1.498   2.256   0.052   3.806
--------------------------------------------------
tot         11.801  17.052  17.073  45.926



 magnetization (x)

# of ion       s       p       d       tot
------------------------------------------
    1       -0.001  -0.000   0.613   0.612
    2       -0.001  -0.000   0.613   0.612
    3       -0.001  -0.004   0.000  -0.006
    4       -0.001  -0.004   0.000  -0.006
    5        0.005   0.074   0.001   0.080
    6        0.004   0.050   0.002   0.056
    7        0.005   0.067   0.001   0.074
    8        0.005   0.074   0.001   0.080
    9        0.004   0.050   0.002   0.056
   10        0.005   0.067   0.001   0.074
--------------------------------------------------
tot          0.024   0.373   1.236   1.633

    CHARGE:  cpu time    2.2040: real time    2.2155
    FORLOC:  cpu time    0.0560: real time    0.0556
    FORNL :  cpu time    6.6480: real time    6.6662
    STRESS:  cpu time   19.8320: real time   19.8582
    FORCOR:  cpu time   51.4040: real time   51.6422
    FORHAR:  cpu time    0.3200: real time    0.3201
    MIXING:  cpu time    0.0560: real time    0.0550
    OFIELD:  cpu time    0.0000: real time    0.0001

  FORCE on cell =-STRESS in cart. coord.  units (eV):
  Direction    XX          YY          ZZ          XY          YZ          ZX
  --------------------------------------------------------------------------------------
  Alpha Z    53.85843    53.85843    53.85843
  Ewald   12740.51733 12740.51395-15059.78693    -0.00204    -0.00066    -0.00119
  Hartree 13498.23605 13498.23705-12903.69732    -0.00030     0.00009     0.00015
  E(xc)    -281.29155  -281.29164  -281.54998     0.00010     0.00000     0.00001
  Local  -27026.13938-27026.13850 27131.23659     0.00194     0.00036     0.00067
  n-local   290.01204   292.34706   294.57525     1.09185     0.22332     0.12222
  augment    58.45081    58.45044    53.89607     0.00047    -0.00006     0.00010
  Kinetic   671.02680   659.50039   711.59422    -6.22828    -2.72815    -3.19952
  Fock        0.00000     0.00000     0.00000     0.00000     0.00000     0.00000
  -------------------------------------------------------------------------------------
  Total       0.07385     0.07385     0.12634    -0.00000     0.00000    -0.00000
  in kB       0.16358     0.16358     0.27984    -0.00001     0.00000    -0.00000
  external pressure =        0.20 kB  Pullay stress =        0.00 kB


 VOLUME and BASIS-vectors are now :
 -----------------------------------------------------------------------------
  energy-cutoff  :      520.00
  volume of cell :      723.33
      direct lattice vectors                 reciprocal lattice vectors
     6.182042969  0.000000661  0.000000000     0.161758834 -0.093391477 -0.000000000
     3.091020570  5.353806339  0.000000000    -0.000000020  0.186783010 -0.000000000
     0.000000000  0.000000000 21.854633405    -0.000000000 -0.000000000  0.045756887

  length of vectors
     6.182042969  6.182042582 21.854633405     0.186782998  0.186783010  0.045756887


 FORCES acting on ions
    electron-ion (+dipol)            ewald-force                    non-local-force                 convergence-correction
 -----------------------------------------------------------------------------------------------
   -.157E-03 -.106E-03 0.738E+00   0.858E-03 0.506E-03 -.744E+00   -.346E-17 -.693E-17 0.103E-01   -.160E-06 -.203E-06 -.794E-03
   0.157E-03 0.106E-03 -.738E+00   -.858E-03 -.506E-03 0.744E+00   0.243E-16 0.693E-17 -.103E-01   0.160E-06 0.203E-06 0.794E-03
   -.407E-04 -.508E-04 0.316E+03   -.243E-03 -.136E-03 -.315E+03   0.647E-17 0.345E-16 -.406E+00   0.515E-08 0.115E-07 -.760E-02
   0.407E-04 0.508E-04 -.316E+03   0.243E-03 0.136E-03 0.315E+03   -.300E-17 -.415E-16 0.406E+00   -.515E-08 -.115E-07 0.760E-02
   -.956E+01 -.195E-01 -.546E+03   0.795E+01 0.209E-01 0.548E+03   0.158E+01 -.348E-02 -.182E+01   0.951E-02 -.431E-04 0.200E-01
   0.476E+01 0.829E+01 -.546E+03   -.396E+01 -.690E+01 0.548E+03   -.794E+00 -.137E+01 -.182E+01   -.479E-02 -.821E-02 0.200E-01
   0.479E+01 -.827E+01 -.546E+03   -.399E+01 0.688E+01 0.548E+03   -.788E+00 0.137E+01 -.182E+01   -.472E-02 0.825E-02 0.200E-01
   0.956E+01 0.195E-01 0.546E+03   -.795E+01 -.209E-01 -.548E+03   -.158E+01 0.348E-02 0.182E+01   -.951E-02 0.431E-04 -.200E-01
   -.476E+01 -.829E+01 0.546E+03   0.396E+01 0.690E+01 -.548E+03   0.794E+00 0.137E+01 0.182E+01   0.479E-02 0.821E-02 -.200E-01
   -.479E+01 0.827E+01 0.546E+03   0.399E+01 -.688E+01 -.548E+03   0.788E+00 -.137E+01 0.182E+01   0.472E-02 -.825E-02 -.200E-01
 -----------------------------------------------------------------------------------------------
   -.114E-09 -.753E-09 0.246E-09   -.169E-13 0.533E-14 -.455E-12   -.111E-15 -.222E-15 0.000E+00   0.343E-12 0.442E-12 -.174E-10


 POSITION                                       TOTAL-FORCE (eV/Angst)
 -----------------------------------------------------------------------------------
      3.09102      1.78460     10.92619         0.000000     -0.000000      0.003631
      6.18205      3.56921     10.92844        -0.000000     -0.000000     -0.003631
      0.00000      0.00000      9.79907         0.000000     -0.000000      0.019058
      0.00000      0.00000     12.05556        -0.000000     -0.000000     -0.019058
      3.95989      0.00080     12.47712        -0.014335     -0.001438      0.007597
      1.11177      1.92405     12.47712         0.005922      0.013133      0.007597
      4.20141      3.42897     12.47712         0.008413     -0.011696      0.007597
      5.31317      5.35301      9.37751         0.014335      0.001438     -0.007597
      8.16129      3.42976      9.37751        -0.005922     -0.013133     -0.007597
      5.07165      1.92484      9.37751        -0.008413      0.011696     -0.007597
 -----------------------------------------------------------------------------------
    total drift:                               -0.000000     -0.000000      0.000000


--------------------------------------------------------------------------------------------------------



  FREE ENERGIE OF THE ION-ELECTRON SYSTEM (eV)
  ---------------------------------------------------
  free  energy   TOTEN  =       -38.14818771 eV

  energy  without entropy=      -38.14818771  energy(sigma->0) =      -38.14818771

 d Force = 0.1054313E-03[-0.687E-04, 0.280E-03]  d Energy = 0.6909557E-03-0.586E-03
 d Force = 0.2535753E+01[ 0.254E+01, 0.254E+01]  d Ewald  = 0.6534412E+01-0.400E+01


--------------------------------------------------------------------------------------------------------


    POTLOK:  cpu time   51.7400: real time   51.9969


--------------------------------------------------------------------------------------------------------




--------------------------------------------------------------------------------------------------------


  
 reached required accuracy - stopping structural energy minimisation
     LOOP+:  cpu time  513.9240: real time  516.0098
    4ORBIT:  cpu time    0.0000: real time    0.0000



 total charge     

# of ion       s       p       d       tot
------------------------------------------
    1        0.372   0.398   8.379   9.149
    2        0.372   0.398   8.379   9.149
    3        1.039   1.370   0.000   2.409
    4        1.039   1.370   0.000   2.409
    5        1.502   2.264   0.051   3.817
    6        1.490   2.239   0.054   3.782
    7        1.498   2.256   0.052   3.806
    8        1.502   2.264   0.051   3.817
    9        1.490   2.239   0.054   3.782
   10        1.498   2.256   0.052   3.806
--------------------------------------------------
tot         11.801  17.052  17.073  45.926



 magnetization (x)

# of ion       s       p       d       tot
------------------------------------------
    1       -0.001  -0.000   0.613   0.612
    2       -0.001  -0.000   0.613   0.612
    3       -0.001  -0.004   0.000  -0.006
    4       -0.001  -0.004   0.000  -0.006
    5        0.005   0.074   0.001   0.080
    6        0.004   0.050   0.002   0.056
    7        0.005   0.067   0.001   0.074
    8        0.005   0.074   0.001   0.080
    9        0.004   0.050   0.002   0.056
   10        0.005   0.067   0.001   0.074
--------------------------------------------------
tot          0.024   0.373   1.236   1.633

 BZINTS: Fermi energy: -2.363088; 66.000000 electrons
         Band energy:-518.484744;  BLOECHL correction: -0.016307

 total amount of memory used by VASP MPI-rank0   129882. kBytes
=======================================================================

   base      :      30000. kBytes
   nonlr-proj:       9572. kBytes
   fftplans  :      11247. kBytes
   grid      :      66142. kBytes
   one-center:        311. kBytes
   wavefun   :      12610. kBytes

  
  
 General timing and accounting informations for this job:
 ========================================================
  
                  Total CPU time used (sec):    10446.868
                            User time (sec):    10212.608
                          System time (sec):      234.260
                         Elapsed time (sec):    10509.371
  
                   Maximum memory used (kb):      384000.
                   Average memory used (kb):           0.
  
                          Minor page faults:      9913514
                          Major page faults:            8
                 Voluntary context switches:         1084
