 vasp.5.4.4.18Apr17-6-g9f103f2a35 (build May  1 2020 15:48:39) complex           
 executed on             LinuxGNU date 2020.07.03  15:47:48
 running on   16 total cores
 distrk:  each k-point on   16 cores,    1 groups
 distr:  one band on NCORES_PER_BAND=   1 cores,   16 groups


--------------------------------------------------------------------------------------------------------


 INCAR:
 POTCAR:   PAW_PBE Co 06Sep2000                   
 POTCAR:   PAW_PBE Ge 05Jan2001                   
 POTCAR:   PAW_PBE Si 05Jan2001                   
 POTCAR:    PAW_PBE S 17Jan2003                   

 ----------------------------------------------------------------------------- 
|                                                                             |
|           W    W    AA    RRRRR   N    N  II  N    N   GGGG   !!!           |
|           W    W   A  A   R    R  NN   N  II  NN   N  G    G  !!!           |
|           W    W  A    A  R    R  N N  N  II  N N  N  G       !!!           |
|           W WW W  AAAAAA  RRRRR   N  N N  II  N  N N  G  GGG   !            |
|           WW  WW  A    A  R   R   N   NN  II  N   NN  G    G                |
|           W    W  A    A  R    R  N    N  II  N    N   GGGG   !!!           |
|                                                                             |
|      For optimal performance we recommend to set                            |
|        NCORE= 4 - approx SQRT( number of cores)                             |
|      NCORE specifies how many cores store one orbital (NPAR=cpu/NCORE).     |
|      This setting can  greatly improve the performance of VASP for DFT.     |
|      The default,   NCORE=1            might be grossly inefficient         |
|      on modern multi-core architectures or massively parallel machines.     |
|      Do your own testing !!!!                                               |
|      Unfortunately you need to use the default for GW and RPA calculations. |
|      (for HF NCORE is supported but not extensively tested yet)             |
|                                                                             |
 ----------------------------------------------------------------------------- 


 ----------------------------------------------------------------------------- 
|                                                                             |
|  ADVICE TO THIS USER RUNNING 'VASP/VAMP'   (HEAR YOUR MASTER'S VOICE ...):  |
|                                                                             |
|      You have switched on vdW-DFT.                                          |
|      This routine was written and supplied by Jiri Klimes.                  |
|      We recommed that you carefully read and cite the following             |
|      publication                                                            |
|      J. Klimes, D.R. Bowler, A. Michelides                                  |
|        J. Phys.: Cond Matt. 22 022201 (2010)                                |
|      J. Klimes, D.R. Bowler, A. Michelides                                  |
|        Phys. Rev. B. 83, 195131 (2011)                                      |
|      and references therein.                                                |
|                                                                             |
 ----------------------------------------------------------------------------- 

 POTCAR:   PAW_PBE Co 06Sep2000                   
   VRHFIN =Co: d8 s1                                                            
   LEXCH  = PE                                                                  
   EATOM  =   813.5563 eV,   59.7947 Ry                                         
                                                                                
   TITEL  = PAW_PBE Co 06Sep2000                                                
   LULTRA =        F    use ultrasoft PP ?                                      
   IUNSCR =        1    unscreen: 0-lin 1-nonlin 2-no                           
   RPACOR =    2.000    partial core radius                                     
   POMASS =   58.933; ZVAL   =    9.000    mass and valenz                      
   RCORE  =    2.300    outmost cutoff radius                                   
   RWIGS  =    2.460; RWIGS  =    1.302    wigner-seitz radius (au A)           
   ENMAX  =  267.969; ENMIN  =  200.977 eV                                      
   RCLOC  =    1.697    cutoff for local pot                                    
   LCOR   =        T    correct aug charges                                     
   LPAW   =        T    paw PP                                                  
   EAUG   =  477.818                                                            
   DEXC   =    -.016                                                            
   RMAX   =    2.817    core radius for proj-oper                               
   RAUG   =    1.300    factor for augmentation sphere                          
   RDEP   =    2.393    radius for radial grids                                 
   QCUT   =   -4.438; QGAM   =    8.876    optimization parameters              
                                                                                
   Description                                                                  
     l     E      TYP  RCUT    TYP  RCUT                                        
     2   .000     23  2.300                                                     
     2   .000     23  2.300                                                     
     0   .000     23  2.300                                                     
     0   .000     23  2.300                                                     
     1  -.200     23  2.300                                                     
     1   .000     23  2.300                                                     
     3   .000      7   .000                                                     
  local pseudopotential read in
  partial core-charges read in
  atomic valenz-charges read in
  non local Contribution for L=           2  read in
    real space projection operators read in
  non local Contribution for L=           2  read in
    real space projection operators read in
  non local Contribution for L=           0  read in
    real space projection operators read in
  non local Contribution for L=           0  read in
    real space projection operators read in
  non local Contribution for L=           1  read in
    real space projection operators read in
  non local Contribution for L=           1  read in
    real space projection operators read in
    PAW grid and wavefunctions read in

   number of l-projection  operators is LMAX  =           6
   number of lm-projection operators is LMMAX =          18

 POTCAR:   PAW_PBE Ge 05Jan2001                   
   VRHFIN =Ge: s2p2                                                             
   LEXCH  = PE                                                                  
   EATOM  =   104.9960 eV,    7.7170 Ry                                         
                                                                                
   TITEL  = PAW_PBE Ge 05Jan2001                                                
   LULTRA =        F    use ultrasoft PP ?                                      
   IUNSCR =        1    unscreen: 0-lin 1-nonlin 2-no                           
   RPACOR =    2.170    partial core radius                                     
   POMASS =   72.610; ZVAL   =    4.000    mass and valenz                      
   RCORE  =    2.300    outmost cutoff radius                                   
   RWIGS  =    2.300; RWIGS  =    1.217    wigner-seitz radius (au A)           
   ENMAX  =  173.807; ENMIN  =  130.355 eV                                      
   ICORE  =        3    local potential                                         
   LCOR   =        T    correct aug charges                                     
   LPAW   =        T    paw PP                                                  
   EAUG   =  385.843                                                            
   DEXC   =    -.138                                                            
   RMAX   =    3.497    core radius for proj-oper                               
   RAUG   =    1.300    factor for augmentation sphere                          
   RDEP   =    2.318    radius for radial grids                                 
   QCUT   =   -3.574; QGAM   =    7.148    optimization parameters              
                                                                                
   Description                                                                  
     l     E      TYP  RCUT    TYP  RCUT                                        
     0   .000     23  2.300                                                     
     0   .000     23  2.300                                                     
     1   .000     23  2.300                                                     
     1   .000     23  2.300                                                     
     2   .000     23  2.300                                                     
     3  -.100      7  2.300                                                     
  local pseudopotential read in
  partial core-charges read in
  atomic valenz-charges read in
  non local Contribution for L=           0  read in
    real space projection operators read in
  non local Contribution for L=           0  read in
    real space projection operators read in
  non local Contribution for L=           1  read in
    real space projection operators read in
  non local Contribution for L=           1  read in
    real space projection operators read in
  non local Contribution for L=           2  read in
    real space projection operators read in
    PAW grid and wavefunctions read in

   number of l-projection  operators is LMAX  =           5
   number of lm-projection operators is LMMAX =          13

 POTCAR:   PAW_PBE Si 05Jan2001                   
   VRHFIN =Si: s2p2                                                             
   LEXCH  = PE                                                                  
   EATOM  =   103.0669 eV,    7.5752 Ry                                         
                                                                                
   TITEL  = PAW_PBE Si 05Jan2001                                                
   LULTRA =        F    use ultrasoft PP ?                                      
   IUNSCR =        1    unscreen: 0-lin 1-nonlin 2-no                           
   RPACOR =    1.500    partial core radius                                     
   POMASS =   28.085; ZVAL   =    4.000    mass and valenz                      
   RCORE  =    1.900    outmost cutoff radius                                   
   RWIGS  =    2.480; RWIGS  =    1.312    wigner-seitz radius (au A)           
   ENMAX  =  245.345; ENMIN  =  184.009 eV                                      
   ICORE  =        2    local potential                                         
   LCOR   =        T    correct aug charges                                     
   LPAW   =        T    paw PP                                                  
   EAUG   =  322.069                                                            
   DEXC   =    -.007                                                            
   RMAX   =    2.944    core radius for proj-oper                               
   RAUG   =    1.300    factor for augmentation sphere                          
   RDEP   =    1.993    radius for radial grids                                 
   QCUT   =   -4.246; QGAM   =    8.493    optimization parameters              
                                                                                
   Description                                                                  
     l     E      TYP  RCUT    TYP  RCUT                                        
     0   .000     23  1.900                                                     
     0   .000     23  1.900                                                     
     1   .000     23  1.900                                                     
     1   .000     23  1.900                                                     
     2   .000      7  1.900                                                     
  local pseudopotential read in
  partial core-charges read in
  atomic valenz-charges read in
  non local Contribution for L=           0  read in
    real space projection operators read in
  non local Contribution for L=           0  read in
    real space projection operators read in
  non local Contribution for L=           1  read in
    real space projection operators read in
  non local Contribution for L=           1  read in
    real space projection operators read in
    PAW grid and wavefunctions read in

   number of l-projection  operators is LMAX  =           4
   number of lm-projection operators is LMMAX =           8

 POTCAR:    PAW_PBE S 17Jan2003                   
   VRHFIN =S : s2p4                                                             
   LEXCH  = PE                                                                  
   EATOM  =   276.8230 eV,   20.3459 Ry                                         
                                                                                
   TITEL  = PAW_PBE S 17Jan2003                                                 
   LULTRA =        F    use ultrasoft PP ?                                      
   IUNSCR =        1    unscreen: 0-lin 1-nonlin 2-no                           
   RPACOR =    1.500    partial core radius                                     
   POMASS =   32.066; ZVAL   =    6.000    mass and valenz                      
   RCORE  =    1.900    outmost cutoff radius                                   
   RWIGS  =    2.200; RWIGS  =    1.164    wigner-seitz radius (au A)           
   ENMAX  =  280.000; ENMIN  =  194.016 eV                                      
   ICORE  =        2    local potential                                         
   LCOR   =        T    correct aug charges                                     
   LPAW   =        T    paw PP                                                  
   EAUG   =  335.092                                                            
   DEXC   =     .000                                                            
   RMAX   =    2.867    core radius for proj-oper                               
   RAUG   =    1.300    factor for augmentation sphere                          
   RDEP   =    1.954    radius for radial grids                                 
   QCUT   =   -4.360; QGAM   =    8.721    optimization parameters              
                                                                                
   Description                                                                  
     l     E      TYP  RCUT    TYP  RCUT                                        
     0   .000     23  1.900                                                     
     0   .000     23  1.900                                                     
     1   .000     23  1.900                                                     
     1   .000     23  1.900                                                     
     2   .000     23  1.900                                                     
  local pseudopotential read in
  partial core-charges read in
  atomic valenz-charges read in
  non local Contribution for L=           0  read in
    real space projection operators read in
  non local Contribution for L=           0  read in
    real space projection operators read in
  non local Contribution for L=           1  read in
    real space projection operators read in
  non local Contribution for L=           1  read in
    real space projection operators read in
    PAW grid and wavefunctions read in

   number of l-projection  operators is LMAX  =           4
   number of lm-projection operators is LMMAX =           8

 Optimization of the real space projectors (new method)

 maximal supplied QI-value         = 16.25
 optimisation between [QCUT,QGAM] = [ 11.54, 23.24] = [ 37.28,151.24] Ry 
 Optimized for a Real-space Cutoff    1.53 Angstroem

   l    n(q)    QCUT    max X(q) W(low)/X(q) W(high)/X(q)  e(spline) 
   2     10    11.539     4.599    0.83E-05    0.15E-04    0.45E-07
   2     10    11.539    18.158    0.10E-03    0.14E-03    0.24E-06
   0     11    11.539    15.740    0.19E-04    0.12E-05    0.17E-07
   0     11    11.539    47.662    0.48E-04    0.15E-04    0.31E-06
   1     10    11.539     5.777    0.11E-04    0.46E-05    0.25E-07
   1     10    11.539     8.007    0.46E-04    0.29E-04    0.11E-06
 Optimization of the real space projectors (new method)

 maximal supplied QI-value         = 16.25
 optimisation between [QCUT,QGAM] = [ 11.54, 23.24] = [ 37.28,151.24] Ry 
 Optimized for a Real-space Cutoff    1.28 Angstroem

   l    n(q)    QCUT    max X(q) W(low)/X(q) W(high)/X(q)  e(spline) 
   0      9    11.539     8.651    0.22E-04    0.16E-04    0.10E-07
   0      9    11.539    33.192    0.11E-03    0.16E-03    0.65E-07
   1      8    11.539     5.899    0.37E-04    0.28E-04    0.43E-07
   1      8    11.539    27.289    0.22E-03    0.28E-04    0.14E-06
   2      8    11.539     4.673    0.11E-03    0.18E-03    0.58E-07
 Optimization of the real space projectors (new method)

 maximal supplied QI-value         = 19.84
 optimisation between [QCUT,QGAM] = [ 11.51, 23.22] = [ 37.09,150.92] Ry 
 Optimized for a Real-space Cutoff    1.21 Angstroem

   l    n(q)    QCUT    max X(q) W(low)/X(q) W(high)/X(q)  e(spline) 
   0      8    11.508     8.708    0.18E-04    0.44E-05    0.47E-08
   0      8    11.508   106.241    0.70E-04    0.15E-03    0.51E-07
   1      8    11.508     5.901    0.63E-05    0.23E-04    0.21E-07
   1      8    11.508    73.241    0.15E-03    0.36E-04    0.79E-07
 Optimization of the real space projectors (new method)

 maximal supplied QI-value         = 19.84
 optimisation between [QCUT,QGAM] = [ 11.51, 23.22] = [ 37.09,150.92] Ry 
 Optimized for a Real-space Cutoff    1.21 Angstroem

   l    n(q)    QCUT    max X(q) W(low)/X(q) W(high)/X(q)  e(spline) 
   0      8    11.508     5.487    0.18E-04    0.22E-05    0.47E-08
   0      8    11.508    85.627    0.96E-04    0.18E-03    0.54E-07
   1      8    11.508     3.530    0.17E-04    0.28E-04    0.21E-07
   1      8    11.508    42.714    0.18E-03    0.63E-04    0.92E-07

 ----------------------------------------------------------------------------- 
|                                                                             |
|  ADVICE TO THIS USER RUNNING 'VASP/VAMP'   (HEAR YOUR MASTER'S VOICE ...):  |
|                                                                             |
|      You enforced a specific xc-type in the INCAR file,                     |
|      a different type was found on the POTCAR file                          |
|          I HOPE YOU KNOW, WHAT YOU ARE  DOING                               |
|                                                                             |
 ----------------------------------------------------------------------------- 

 PAW_PBE Co 06Sep2000                   :
 energy of atom  1       EATOM= -813.5563
 kinetic energy error for atom=    0.0028 (will be added to EATOM!!)
 PAW_PBE Ge 05Jan2001                   :
 energy of atom  2       EATOM= -104.9960
 kinetic energy error for atom=    0.0002 (will be added to EATOM!!)
 PAW_PBE Si 05Jan2001                   :
 energy of atom  3       EATOM= -103.0669
 kinetic energy error for atom=    0.0005 (will be added to EATOM!!)
  PAW_PBE S 17Jan2003                   :
 energy of atom  4       EATOM= -276.8230
 kinetic energy error for atom=    0.0016 (will be added to EATOM!!)


 POSCAR: Co2 Ge Si S6                            
  positions in direct lattice
  velocities in cartesian coordinates
  No initial velocities read in
 exchange correlation table for  LEXCH =       42
   RHO(1)=    0.500       N(1)  =     2000
   RHO(2)=  100.500       N(2)  =     4000



--------------------------------------------------------------------------------------------------------


 ion  position               nearest neighbor table
   1  0.333  0.333  0.500-   6 2.78   5 2.78   7 2.78   8 2.78  10 2.78   9 2.78
   2  0.667  0.667  0.500-   9 2.78   8 2.78  10 2.78   5 2.78   7 2.78   6 2.78
   3  0.000  0.000  0.448-   4 2.43   8 2.63  10 2.63   9 2.63
   4  0.000  0.000  0.552-   3 2.43   5 2.63   7 2.63   6 2.63
   5  0.626  0.000  0.574-   4 2.63   1 2.78   2 2.78
   6  0.000  0.373  0.574-   4 2.63   1 2.78   2 2.78
   7  0.373  0.626  0.574-   4 2.63   1 2.78   2 2.78
   8  0.374  1.000  0.426-   3 2.63   2 2.78   1 2.78
   9  1.000  0.627  0.426-   3 2.63   2 2.78   1 2.78
  10  0.627  0.374  0.426-   3 2.63   2 2.78   1 2.78

  LATTYP: Found a hexagonal cell.
 ALAT       =     6.9077769333
 C/A-ratio  =     3.3939410937
  
  Lattice vectors:
  
 A1 = (   3.4538890000,  -5.9823100000,   0.0000000000)
 A2 = (  -6.9077770000,   0.0000000000,   0.0000000000)
 A3 = (   0.0000000000,   0.0000000000, -23.4445880000)


Analysis of symmetry for initial positions (statically):
=====================================================================
 Subroutine PRICEL returns:
 Original cell was already a primitive cell.
 

 Routine SETGRP: Setting up the symmetry group for a 
 hexagonal supercell.


 Subroutine GETGRP returns: Found  3 space group operations
 (whereof  3 operations were pure point group operations)
 out of a pool of 24 trial point group operations.


The static configuration has the point symmetry C_3 .


Analysis of symmetry for dynamics (positions and initial velocities):
=====================================================================
 Subroutine PRICEL returns:
 Original cell was already a primitive cell.
 

 Routine SETGRP: Setting up the symmetry group for a 
 hexagonal supercell.


 Subroutine GETGRP returns: Found  3 space group operations
 (whereof  3 operations were pure point group operations)
 out of a pool of 24 trial point group operations.


The dynamic configuration has the point symmetry C_3 .


Analysis of constrained symmetry for selective dynamics:
=====================================================================
 Subroutine PRICEL returns:
 Original cell was already a primitive cell.
 

 Routine SETGRP: Setting up the symmetry group for a 
 hexagonal supercell.


 Subroutine GETGRP returns: Found  3 space group operations
 (whereof  3 operations were pure point group operations)
 out of a pool of 24 trial point group operations.


The constrained configuration has the point symmetry C_3 .


Analysis of structural, dynamic, and magnetic symmetry:
=====================================================================
 Subroutine PRICEL returns:
 Original cell was already a primitive cell.
 

 Routine SETGRP: Setting up the symmetry group for a 
 hexagonal supercell.


 Subroutine GETGRP returns: Found  3 space group operations
 (whereof  3 operations were pure point group operations)
 out of a pool of 24 trial point group operations.


The magnetic configuration has the point symmetry C_3 .


 Subroutine INISYM returns: Found  3 space group operations
 (whereof  3 operations are pure point group operations),
 and found     1 'primitive' translations



 KPOINTS: Kpoints from vasprun.xml                

Automatic generation of k-mesh.
Space group operators:
 irot       det(A)        alpha          n_x          n_y          n_z        tau_x        tau_y        tau_z
    1     1.000000     0.000000     1.000000     0.000000     0.000000     0.000000     0.000000     0.000000
    2     1.000000   120.000000     0.000000     0.000000     1.000000     0.000000     0.000000     0.000000
    3     1.000000   120.000000     0.000000     0.000000    -1.000000     0.000000     0.000000     0.000000
 
 Subroutine IBZKPT returns following result:
 ===========================================
 
 Found      5 irreducible k-points:
 
 Following reciprocal coordinates:
            Coordinates               Weight
  0.000000  0.000000  0.000000      1.000000
  0.200000  0.000000  0.000000      6.000000
  0.400000  0.000000  0.000000      6.000000
  0.400000  0.200000  0.000000      6.000000
 -0.400000  0.200000  0.000000      6.000000
 
 Following cartesian coordinates:
            Coordinates               Weight
  0.000000  0.000000  0.000000      1.000000
  0.028953 -0.016716  0.000000      6.000000
  0.057906 -0.033432  0.000000      6.000000
  0.057906  0.000000  0.000000      6.000000
 -0.057906  0.066864  0.000000      6.000000
 
 TETIRR: Found     15 inequivalent tetrahedra from      150


--------------------------------------------------------------------------------------------------------




 Dimension of arrays:
   k-points           NKPTS =      5   k-points in BZ     NKDIM =      5   number of bands    NBANDS=     48
   number of dos      NEDOS =    301   number of ions     NIONS =     10
   non local maximal  LDIM  =      6   non local SUM 2l+1 LMDIM =     18
   total plane-waves  NPLWV = 524880
   max r-space proj   IRMAX =   8238   max aug-charges    IRDMAX=  29641
   dimension x,y,z NGX =    54 NGY =   54 NGZ =  180
   dimension x,y,z NGXF=   108 NGYF=  108 NGZF=  360
   support grid    NGXF=   108 NGYF=  108 NGZF=  360
   ions per type =               2   1   1   6
   NGX,Y,Z   is equivalent  to a cutoff of  13.00, 13.00, 12.76 a.u.
   NGXF,Y,Z  is equivalent  to a cutoff of  25.99, 25.99, 25.53 a.u.

 SYSTEM =  unknown system                          
 POSCAR =  Co2 Ge Si S6                            

 Startparameter for this run:
   NWRITE =      2    write-flag & timer
   PREC   = accura    normal or accurate (medium, high low for compatibility)
   ISTART =      0    job   : 0-new  1-cont  2-samecut
   ICHARG =      2    charge: 1-file 2-atom 10-const
   ISPIN  =      2    spin polarized calculation?
   LNONCOLLINEAR =      F non collinear calculations
   LSORBIT =      F    spin-orbit coupling
   INIWAV =      1    electr: 0-lowe 1-rand  2-diag
   LASPH  =      F    aspherical Exc in radial PAW
   METAGGA=      F    non-selfconsistent MetaGGA calc.

 Electronic Relaxation 1
   ENCUT  =  520.0 eV  38.22 Ry    6.18 a.u.  12.84 12.84 43.59*2*pi/ulx,y,z
   ENINI  =  520.0     initial cutoff
   ENAUG  =  477.8 eV  augmentation charge cutoff
   NELM   =    400;   NELMIN=  2; NELMDL=  0     # of ELM steps 
   EDIFF  = 0.1E-03   stopping-criterion for ELM
   LREAL  =      T    real-space projection
   NLSPLINE    = F    spline interpolate recip. space projectors
   LCOMPAT=      F    compatible to vasp.4.4
   GGA_COMPAT  = T    GGA compatible to vasp.4.4-vasp.4.6
   LMAXPAW     = -100 max onsite density
   LMAXMIX     =    2 max onsite mixed and CHGCAR
   VOSKOWN=      0    Vosko Wilk Nusair interpolation
   ROPT   =   -0.00025  -0.00025  -0.00025  -0.00025
 Ionic relaxation
   EDIFFG = 0.1E-02   stopping-criterion for IOM
   NSW    =     99    number of steps for IOM
   NBLOCK =      1;   KBLOCK =     99    inner block; outer block 
   IBRION =      2    ionic relax: 0-MD 1-quasi-New 2-CG
   NFREE  =      1    steps in history (QN), initial steepest desc. (CG)
   ISIF   =      3    stress and relaxation
   IWAVPR =     11    prediction:  0-non 1-charg 2-wave 3-comb
   ISYM   =      2    0-nonsym 1-usesym 2-fastsym
   LCORR  =      T    Harris-Foulkes like correction to forces

   POTIM  = 0.5000    time-step for ionic-motion
   TEIN   =    0.0    initial temperature
   TEBEG  =    0.0;   TEEND  =   0.0 temperature during run
   SMASS  =  -3.00    Nose mass-parameter (am)
   estimated Nose-frequenzy (Omega)   =  0.10E-29 period in steps =****** mass=  -0.109E-26a.u.
   SCALEE = 1.0000    scale energy and forces
   NPACO  =    256;   APACO  = 16.0  distance and # of slots for P.C.
   PSTRESS=    0.0 pullay stress

  Mass of Ions in am
   POMASS =  58.93 72.61 28.09 32.07
  Ionic Valenz
   ZVAL   =   9.00  4.00  4.00  6.00
  Atomic Wigner-Seitz radii
   RWIGS  =  -1.00 -1.00 -1.00 -1.00
  virtual crystal weights 
   VCA    =   1.00  1.00  1.00  1.00
   NELECT =      62.0000    total number of electrons
   NUPDOWN=      -1.0000    fix difference up-down

 DOS related values:
   EMIN   =  10.00;   EMAX   =-10.00  energy-range for DOS
   EFERMI =   0.00
   ISMEAR =    -5;   SIGMA  =   0.05  broadening in eV -4-tet -1-fermi 0-gaus

 Electronic relaxation 2 (details)
   IALGO  =     38    algorithm
   LDIAG  =      T    sub-space diagonalisation (order eigenvalues)
   LSUBROT=      F    optimize rotation matrix (better conditioning)
   TURBO    =      0    0=normal 1=particle mesh
   IRESTART =      0    0=no restart 2=restart with 2 vectors
   NREBOOT  =      0    no. of reboots
   NMIN     =      0    reboot dimension
   EREF     =   0.00    reference energy to select bands
   IMIX   =      4    mixing-type and parameters
     AMIX     =   0.40;   BMIX     =  1.00
     AMIX_MAG =   1.60;   BMIX_MAG =  1.00
     AMIN     =   0.01
     WC   =   100.;   INIMIX=   1;  MIXPRE=   1;  MAXMIX= -45

 Intra band minimization:
   WEIMIN = 0.0010     energy-eigenvalue tresh-hold
   EBREAK =  0.52E-06  absolut break condition
   DEPER  =   0.30     relativ break condition  

   TIME   =   0.40     timestep for ELM

  volume/ion in A,a.u.               =      96.88       653.80
  Fermi-wavevector in a.u.,A,eV,Ry     =   0.654820  1.237431  5.834037  0.428790
  Thomas-Fermi vector in A             =   1.725500

 Write flags
   LWAVE        =      F    write WAVECAR
   LDOWNSAMPLE  =      F    k-point downsampling of WAVECAR
   LCHARG       =      T    write CHGCAR
   LVTOT        =      F    write LOCPOT, total local potential
   LVHAR        =      F    write LOCPOT, Hartree potential only
   LELF         =      F    write electronic localiz. function (ELF)
   LORBIT       =     11    0 simple, 1 ext, 2 COOP (PROOUT), +10 PAW based schemes


 Dipole corrections
   LMONO  =      F    monopole corrections only (constant potential shift)
   LDIPOL =      F    correct potential (dipole corrections)
   IDIPOL =      0    1-x, 2-y, 3-z, 4-all directions 
   EPSILON=  1.0000000 bulk dielectric constant

 Exchange correlation treatment:
   GGA     =    BO    GGA type
   LEXCH   =    42    internal setting for exchange type
   VOSKOWN=      0    Vosko Wilk Nusair interpolation
   LHFCALC =     F    Hartree Fock is set to
   LHFONE  =     F    Hartree Fock one center treatment
   AEXX    =    0.0000 exact exchange contribution

 vdW DFT:
   LUSE_VDW   =     T    switch on vdW DFT
   Zab_VDW    =-.8491    correlation parameter
   PARAM1     =0.1833
   PARAM2     =0.2200
   PARAM3     =0.0000
   -- rVV10 --
   BPARAM     = 6.3000
   CPARAM     = 0.0093

 Linear response parameters
   LEPSILON=     F    determine dielectric tensor
   LRPA    =     F    only Hartree local field effects (RPA)
   LNABLA  =     F    use nabla operator in PAW spheres
   LVEL    =     F    velocity operator in full k-point grid
   LINTERFAST=   F  fast interpolation
   KINTER  =     0    interpolate to denser k-point grid
   CSHIFT  =0.1000    complex shift for real part using Kramers Kronig
   OMEGAMAX=  -1.0    maximum frequency
   DEG_THRESHOLD= 0.2000000E-02 threshold for treating states as degnerate
   RTIME   =   -0.100 relaxation time in fs
  (WPLASMAI=    0.000 imaginary part of plasma frequency in eV, 0.658/RTIME)
   DFIELD  = 0.0000000 0.0000000 0.0000000 field for delta impulse in time

 Orbital magnetization related:
   ORBITALMAG=     F  switch on orbital magnetization
   LCHIMAG   =     F  perturbation theory with respect to B field
   DQ        =  0.001000  dq finite difference perturbation B field
   LLRAUG    =     F  two centre corrections for induced B field



--------------------------------------------------------------------------------------------------------


 conjugate gradient relaxation of ions
   using selective dynamics as specified on POSCAR
 charge density and potential will be updated during run
 spin polarized calculation
 Variant of blocked Davidson
 Davidson routine will perform the subspace rotation
 perform sub-space diagonalisation
    after iterative eigenvector-optimisation
 modified Broyden-mixing scheme, WC =      100.0
 initial mixing is a Kerker type mixing with AMIX =  0.4000 and BMIX =      1.0000
 Hartree-type preconditioning will be used
 using additional bands           17
 real space projection scheme for non local part
 use partial core corrections
 calculate Harris-corrections to forces   (improved forces if not selfconsistent)
 use gradient corrections 
 use of overlap-Matrix (Vanderbilt PP)
 Fermi weights with tetrahedron method with Bloechl corrections


--------------------------------------------------------------------------------------------------------


  energy-cutoff  :      520.00
  volume of cell :      968.84
      direct lattice vectors                 reciprocal lattice vectors
     6.907777000 -0.000000000  0.000000000     0.144764372 -0.083579742  0.000000000
     3.453888000  5.982310000  0.000000000     0.000000000  0.167159509 -0.000000000
     0.000000000  0.000000000 23.444588000    -0.000000000  0.000000000  0.042653767

  length of vectors
     6.907777000  6.907776433 23.444588000     0.167159495  0.167159509  0.042653767



 k-points in units of 2pi/SCALE and weight: Kpoints from vasprun.xml                
   0.00000000  0.00000000  0.00000000       0.040
   0.02895287 -0.01671595  0.00000000       0.240
   0.05790575 -0.03343190  0.00000000       0.240
   0.05790575  0.00000000  0.00000000       0.240
  -0.05790575  0.06686380  0.00000000       0.240

 k-points in reciprocal lattice and weights: Kpoints from vasprun.xml                
   0.00000000  0.00000000  0.00000000       0.040
   0.20000000  0.00000000  0.00000000       0.240
   0.40000000  0.00000000  0.00000000       0.240
   0.40000000  0.20000000  0.00000000       0.240
  -0.40000000  0.20000000  0.00000000       0.240

 position of ions in fractional coordinates (direct lattice) 
   0.33333300  0.33333300  0.49992500
   0.66666700  0.66666700  0.50007500
   0.00000000  0.00000000  0.44821600
   0.00000000  0.00000000  0.55178400
   0.62635700  0.00042000  0.57375200
   0.00042000  0.37322400  0.57375200
   0.37322400  0.62635700  0.57375200
   0.37364300  0.99958000  0.42624800
   0.99958000  0.62677600  0.42624800
   0.62677600  0.37364300  0.42624800

 position of ions in cartesian coordinates  (Angst):
   3.45388488  1.99410134 11.72053566
   6.90778012  3.98820866 11.72405234
   0.00000000  0.00000000 10.50823946
   0.00000000  0.00000000 12.93634854
   4.32818511  0.00251257 13.45137925
   1.29197516  2.23274167 13.45137925
   4.74151509  3.74706174 13.45137925
   6.03347989  5.97979743  9.99320875
   9.06968984  3.74956833  9.99320875
   5.62014991  2.23524826  9.99320875



--------------------------------------------------------------------------------------------------------


 k-point  1 :   0.0000 0.0000 0.0000  plane waves:   26073
 k-point  2 :   0.2000 0.0000 0.0000  plane waves:   26070
 k-point  3 :   0.4000 0.0000 0.0000  plane waves:   26086
 k-point  4 :   0.4000 0.2000 0.0000  plane waves:   26085
 k-point  5 :  -0.4000 0.2000 0.0000  plane waves:   26115

 maximum and minimum number of plane-waves per node :     26115    26070

 maximum number of plane-waves:     26115
 maximum index in each direction: 
   IXMAX=   13   IYMAX=   12   IZMAX=   43
   IXMIN=  -13   IYMIN=  -13   IZMIN=  -43


 serial   3D FFT for wavefunctions
 parallel 3D FFT for charge:
    minimum data exchange during FFTs selected (reduces bandwidth)


 total amount of memory used by VASP MPI-rank0   128855. kBytes
=======================================================================

   base      :      30000. kBytes
   nonlr-proj:       6370. kBytes
   fftplans  :      11247. kBytes
   grid      :      68332. kBytes
   one-center:        311. kBytes
   wavefun   :      12595. kBytes

     INWAV:  cpu time    0.0000: real time    0.0005
 Broyden mixing: mesh for mixing (old mesh)
   NGX = 25   NGY = 25   NGZ = 87
  (NGX  =108   NGY  =108   NGZ  =360)
  gives a total of  54375 points

 initial charge density was supplied:
 charge density of overlapping atoms calculated
 number of electron      62.0000000 magnetization       9.7800000
 keeping initial charge density in first step


--------------------------------------------------------------------------------------------------------


 Maximum index for non-local projection operator         7925
 Maximum index for augmentation-charges         2133 (set IRDMAX)


--------------------------------------------------------------------------------------------------------


 First call to EWALD:  gamma=   0.179
 Maximum number of real-space cells 4x 4x 1
 Maximum number of reciprocal cells 2x 2x 6

    FEWALD:  cpu time    0.0000: real time    0.0014


--------------------------------------- Iteration      1(   1)  ---------------------------------------


vdW kernel read from vdw_kernel.bindat
  0.0000  0.2424  0.5071  0.7962  1.1119  1.4567  1.8333  2.2446  2.6937  3.1842
  3.7199  4.3049  4.9438  5.6415  6.4036  7.2358  8.1446  9.1372 10.2212 11.4050
 12.6979 14.1099 15.6519 17.3360 19.1751 21.1837 23.3773 25.7729 28.3892 31.2465
 34.3669 37.7748 41.4965 45.5611 50.0000

    POTLOK:  cpu time   51.9800: real time   52.3213
    SETDIJ:  cpu time    0.0400: real time    0.0416
     EDDAV:  cpu time   22.4920: real time   22.7243
 BZINTS: Fermi energy:  4.676376; 62.000000 electrons
         Band energy: -36.406563;  BLOECHL correction: -0.027649
       DOS:  cpu time    0.0040: real time    0.0068
    --------------------------------------------
      LOOP:  cpu time   74.5160: real time   75.0941

 eigenvalue-minimisations  :   960
 total energy-change (2. order) : 0.4112398E+03  (-0.1874647E+04)
 number of electron      62.0000000 magnetization       9.7800000
 augmentation part       62.0000000 magnetization       9.7800000

 Free energy of the ion-electron system (eV)
  ---------------------------------------------------
  alpha Z        PSCENC =        25.99323537
  Ewald energy   TEWEN  =      7529.91642125
  -Hartree energ DENC   =    -10649.13892068
  -exchange      EXHF   =         0.00000000
  -V(xc)+E(xc)   XCENC  =        80.20069622
  PAW double counting   =      1936.59894553    -1985.87436762
  entropy T*S    EENTRO =         0.00000000
  eigenvalues    EBANDS =       -36.40656329
  atomic energy  EATOM  =      3509.95039935
  Solvation  Ediel_sol  =         0.00000000
  ---------------------------------------------------
  free energy    TOTEN  =       411.23984613 eV

  energy without entropy =      411.23984613  energy(sigma->0) =      411.23984613


--------------------------------------------------------------------------------------------------------




--------------------------------------- Iteration      1(   2)  ---------------------------------------


     EDDAV:  cpu time   28.8120: real time   29.1373
 BZINTS: Fermi energy: -1.640073; 62.000000 electrons
         Band energy:-412.546174;  BLOECHL correction: -0.035991
       DOS:  cpu time    0.0080: real time    0.0072
    --------------------------------------------
      LOOP:  cpu time   28.8200: real time   29.1445

 eigenvalue-minimisations  :  1264
 total energy-change (2. order) :-0.3761396E+03  (-0.3425614E+03)
 number of electron      62.0000000 magnetization       9.7800000
 augmentation part       62.0000000 magnetization       9.7800000

 Free energy of the ion-electron system (eV)
  ---------------------------------------------------
  alpha Z        PSCENC =        25.99323537
  Ewald energy   TEWEN  =      7529.91642125
  -Hartree energ DENC   =    -10649.13892068
  -exchange      EXHF   =         0.00000000
  -V(xc)+E(xc)   XCENC  =        80.20069622
  PAW double counting   =      1936.59894553    -1985.87436762
  entropy T*S    EENTRO =         0.00000000
  eigenvalues    EBANDS =      -412.54617425
  atomic energy  EATOM  =      3509.95039935
  Solvation  Ediel_sol  =         0.00000000
  ---------------------------------------------------
  free energy    TOTEN  =        35.10023517 eV

  energy without entropy =       35.10023517  energy(sigma->0) =       35.10023517


--------------------------------------------------------------------------------------------------------




--------------------------------------- Iteration      1(   3)  ---------------------------------------


     EDDAV:  cpu time   28.9400: real time   29.4466
 BZINTS: Fermi energy: -2.981468; 62.000000 electrons
         Band energy:-493.881490;  BLOECHL correction: -0.003422
       DOS:  cpu time    0.0040: real time    0.0070
    --------------------------------------------
      LOOP:  cpu time   28.9440: real time   29.4536

 eigenvalue-minimisations  :  1280
 total energy-change (2. order) :-0.8133532E+02  (-0.7774984E+02)
 number of electron      62.0000000 magnetization       9.7800000
 augmentation part       62.0000000 magnetization       9.7800000

 Free energy of the ion-electron system (eV)
  ---------------------------------------------------
  alpha Z        PSCENC =        25.99323537
  Ewald energy   TEWEN  =      7529.91642125
  -Hartree energ DENC   =    -10649.13892068
  -exchange      EXHF   =         0.00000000
  -V(xc)+E(xc)   XCENC  =        80.20069622
  PAW double counting   =      1936.59894553    -1985.87436762
  entropy T*S    EENTRO =         0.00000000
  eigenvalues    EBANDS =      -493.88148993
  atomic energy  EATOM  =      3509.95039935
  Solvation  Ediel_sol  =         0.00000000
  ---------------------------------------------------
  free energy    TOTEN  =       -46.23508051 eV

  energy without entropy =      -46.23508051  energy(sigma->0) =      -46.23508051


--------------------------------------------------------------------------------------------------------




--------------------------------------- Iteration      1(   4)  ---------------------------------------


     EDDAV:  cpu time   28.2840: real time   28.8655
 BZINTS: Fermi energy: -3.056730; 62.000000 electrons
         Band energy:-497.324191;  BLOECHL correction: -0.000492
       DOS:  cpu time    0.0080: real time    0.0052
    --------------------------------------------
      LOOP:  cpu time   28.2920: real time   28.8708

 eigenvalue-minimisations  :  1248
 total energy-change (2. order) :-0.3442701E+01  (-0.3414128E+01)
 number of electron      62.0000000 magnetization       9.7800000
 augmentation part       62.0000000 magnetization       9.7800000

 Free energy of the ion-electron system (eV)
  ---------------------------------------------------
  alpha Z        PSCENC =        25.99323537
  Ewald energy   TEWEN  =      7529.91642125
  -Hartree energ DENC   =    -10649.13892068
  -exchange      EXHF   =         0.00000000
  -V(xc)+E(xc)   XCENC  =        80.20069622
  PAW double counting   =      1936.59894553    -1985.87436762
  entropy T*S    EENTRO =         0.00000000
  eigenvalues    EBANDS =      -497.32419081
  atomic energy  EATOM  =      3509.95039935
  Solvation  Ediel_sol  =         0.00000000
  ---------------------------------------------------
  free energy    TOTEN  =       -49.67778139 eV

  energy without entropy =      -49.67778139  energy(sigma->0) =      -49.67778139


--------------------------------------------------------------------------------------------------------




--------------------------------------- Iteration      1(   5)  ---------------------------------------


     EDDAV:  cpu time   30.3480: real time   30.6824
 BZINTS: Fermi energy: -3.057131; 62.000000 electrons
         Band energy:-497.430145;  BLOECHL correction: -0.000472
       DOS:  cpu time    0.0040: real time    0.0051
    CHARGE:  cpu time    2.0720: real time    2.1112
    MIXING:  cpu time    0.0440: real time    0.0433
    --------------------------------------------
      LOOP:  cpu time   32.4680: real time   32.8419

 eigenvalue-minimisations  :  1344
 total energy-change (2. order) :-0.1059542E+00  (-0.1059447E+00)
 number of electron      61.9999991 magnetization       9.8035881
 augmentation part        0.3535035 magnetization       6.1413223

 Broyden mixing:
  rms(total) = 0.36166E+01    rms(broyden)= 0.36165E+01
  rms(prec ) = 0.38868E+01
  weight for this iteration     100.00

 Free energy of the ion-electron system (eV)
  ---------------------------------------------------
  alpha Z        PSCENC =        25.99323537
  Ewald energy   TEWEN  =      7529.91642125
  -Hartree energ DENC   =    -10649.13892068
  -exchange      EXHF   =         0.00000000
  -V(xc)+E(xc)   XCENC  =        80.20069622
  PAW double counting   =      1936.59894553    -1985.87436762
  entropy T*S    EENTRO =         0.00000000
  eigenvalues    EBANDS =      -497.43014500
  atomic energy  EATOM  =      3509.95039935
  Solvation  Ediel_sol  =         0.00000000
  ---------------------------------------------------
  free energy    TOTEN  =       -49.78373557 eV

  energy without entropy =      -49.78373557  energy(sigma->0) =      -49.78373557


--------------------------------------------------------------------------------------------------------




--------------------------------------- Iteration      1(   6)  ---------------------------------------


    POTLOK:  cpu time   50.9040: real time   52.5827
    SETDIJ:  cpu time    0.0400: real time    0.0419
     EDDAV:  cpu time   29.2760: real time   30.3471
 BZINTS: Fermi energy: -4.586859; 62.000000 electrons
         Band energy:-733.685489;  BLOECHL correction: -0.013166
       DOS:  cpu time    0.0040: real time    0.0059
    CHARGE:  cpu time    2.0600: real time    2.0653
    MIXING:  cpu time    0.0640: real time    0.0624
    --------------------------------------------
      LOOP:  cpu time   82.3480: real time   85.1054

 eigenvalue-minimisations  :  1312
 total energy-change (2. order) :-0.6255520E+02  (-0.7142272E+02)
 number of electron      61.9999983 magnetization       9.4341588
 augmentation part       10.4708408 magnetization       9.6199860

 Broyden mixing:
  rms(total) = 0.67520E+01    rms(broyden)= 0.67519E+01
  rms(prec ) = 0.70930E+01
  weight for this iteration     100.00

 eigenvalues of (default mixing * dielectric matrix)
  average eigenvalue GAMMA=   0.3263
  0.3263

 Free energy of the ion-electron system (eV)
  ---------------------------------------------------
  alpha Z        PSCENC =        25.99323537
  Ewald energy   TEWEN  =      7529.91642125
  -Hartree energ DENC   =    -10513.52817689
  -exchange      EXHF   =         0.00000000
  -V(xc)+E(xc)   XCENC  =        85.50084513
  PAW double counting   =      1689.41324898    -1705.89941731
  entropy T*S    EENTRO =         0.00000000
  eigenvalues    EBANDS =      -733.68548916
  atomic energy  EATOM  =      3509.95039935
  Solvation  Ediel_sol  =         0.00000000
  ---------------------------------------------------
  free energy    TOTEN  =      -112.33893328 eV

  energy without entropy =     -112.33893328  energy(sigma->0) =     -112.33893328


--------------------------------------------------------------------------------------------------------




--------------------------------------- Iteration      1(   7)  ---------------------------------------


    POTLOK:  cpu time   50.3040: real time   52.7418
    SETDIJ:  cpu time    0.0480: real time    0.0464
     EDDAV:  cpu time   25.3280: real time   25.7744
 BZINTS: Fermi energy: -4.903901; 62.000000 electrons
         Band energy:-563.620239;  BLOECHL correction: -0.029132
       DOS:  cpu time    0.0040: real time    0.0068
    CHARGE:  cpu time    2.0760: real time    2.0798
    MIXING:  cpu time    0.0440: real time    0.0432
    --------------------------------------------
      LOOP:  cpu time   77.8040: real time   80.6924

 eigenvalue-minimisations  :  1104
 total energy-change (2. order) : 0.6379921E+02  (-0.7827338E+01)
 number of electron      61.9999985 magnetization       9.1457615
 augmentation part        8.8031129 magnetization       8.6349902

 Broyden mixing:
  rms(total) = 0.37531E+01    rms(broyden)= 0.37530E+01
  rms(prec ) = 0.40079E+01
  weight for this iteration     100.00

 eigenvalues of (default mixing * dielectric matrix)
  average eigenvalue GAMMA=   0.4398
  0.4398  0.4398

 Free energy of the ion-electron system (eV)
  ---------------------------------------------------
  alpha Z        PSCENC =        25.99323537
  Ewald energy   TEWEN  =      7529.91642125
  -Hartree energ DENC   =    -10588.83211081
  -exchange      EXHF   =         0.00000000
  -V(xc)+E(xc)   XCENC  =        80.55271072
  PAW double counting   =      1833.74716494    -1876.24730275
  entropy T*S    EENTRO =         0.00000000
  eigenvalues    EBANDS =      -563.62023907
  atomic energy  EATOM  =      3509.95039935
  Solvation  Ediel_sol  =         0.00000000
  ---------------------------------------------------
  free energy    TOTEN  =       -48.53972100 eV

  energy without entropy =      -48.53972100  energy(sigma->0) =      -48.53972100


--------------------------------------------------------------------------------------------------------




--------------------------------------- Iteration      1(   8)  ---------------------------------------


    POTLOK:  cpu time   52.7280: real time   52.9174
    SETDIJ:  cpu time    0.0640: real time    0.0641
     EDDAV:  cpu time   30.0560: real time   30.7324
 BZINTS: Fermi energy: -4.233572; 62.000000 electrons
         Band energy:-512.252910;  BLOECHL correction: -0.000804
       DOS:  cpu time    0.0040: real time    0.0072
    CHARGE:  cpu time    1.9320: real time    2.1145
    MIXING:  cpu time    0.0440: real time    0.0440
    --------------------------------------------
      LOOP:  cpu time   84.8280: real time   85.8795

 eigenvalue-minimisations  :  1328
 total energy-change (2. order) : 0.1072358E+02  (-0.2056632E+01)
 number of electron      61.9999988 magnetization       9.0720966
 augmentation part        3.5452891 magnetization       5.8301701

 Broyden mixing:
  rms(total) = 0.12101E+01    rms(broyden)= 0.12099E+01
  rms(prec ) = 0.12625E+01
  weight for this iteration     100.00

 eigenvalues of (default mixing * dielectric matrix)
  average eigenvalue GAMMA=   0.4395
  0.5549  0.3818  0.3818

 Free energy of the ion-electron system (eV)
  ---------------------------------------------------
  alpha Z        PSCENC =        25.99323537
  Ewald energy   TEWEN  =      7529.91642125
  -Hartree energ DENC   =    -10622.78150376
  -exchange      EXHF   =         0.00000000
  -V(xc)+E(xc)   XCENC  =        80.59432747
  PAW double counting   =      1895.92956204    -1945.16567095
  entropy T*S    EENTRO =         0.00000000
  eigenvalues    EBANDS =      -512.25291036
  atomic energy  EATOM  =      3509.95039935
  Solvation  Ediel_sol  =         0.00000000
  ---------------------------------------------------
  free energy    TOTEN  =       -37.81613960 eV

  energy without entropy =      -37.81613960  energy(sigma->0) =      -37.81613960


--------------------------------------------------------------------------------------------------------




--------------------------------------- Iteration      1(   9)  ---------------------------------------


    POTLOK:  cpu time   52.3600: real time   52.6596
    SETDIJ:  cpu time    0.0400: real time    0.0417
     EDDAV:  cpu time   31.4440: real time   32.3052
 BZINTS: Fermi energy: -4.816145; 62.000000 electrons
         Band energy:-527.889136;  BLOECHL correction: -0.014512
       DOS:  cpu time    0.0040: real time    0.0067
    CHARGE:  cpu time    2.1040: real time    2.1150
    MIXING:  cpu time    0.0440: real time    0.0428
    --------------------------------------------
      LOOP:  cpu time   85.9960: real time   87.1709

 eigenvalue-minimisations  :  1408
 total energy-change (2. order) :-0.1137505E+01  (-0.8149984E+00)
 number of electron      61.9999986 magnetization       8.9012576
 augmentation part        6.5739209 magnetization       8.5207574

 Broyden mixing:
  rms(total) = 0.20366E+01    rms(broyden)= 0.20366E+01
  rms(prec ) = 0.21457E+01
  weight for this iteration     100.00

 eigenvalues of (default mixing * dielectric matrix)
  average eigenvalue GAMMA=   0.4138
  0.5701  0.4336  0.4336  0.2180

 Free energy of the ion-electron system (eV)
  ---------------------------------------------------
  alpha Z        PSCENC =        25.99323537
  Ewald energy   TEWEN  =      7529.91642125
  -Hartree energ DENC   =    -10609.87878763
  -exchange      EXHF   =         0.00000000
  -V(xc)+E(xc)   XCENC  =        80.75714911
  PAW double counting   =      1872.62088944    -1920.42381551
  entropy T*S    EENTRO =         0.00000000
  eigenvalues    EBANDS =      -527.88913578
  atomic energy  EATOM  =      3509.95039935
  Solvation  Ediel_sol  =         0.00000000
  ---------------------------------------------------
  free energy    TOTEN  =       -38.95364440 eV

  energy without entropy =      -38.95364440  energy(sigma->0) =      -38.95364440


--------------------------------------------------------------------------------------------------------




--------------------------------------- Iteration      1(  10)  ---------------------------------------


    POTLOK:  cpu time   52.3760: real time   52.7966
    SETDIJ:  cpu time    0.0440: real time    0.0432
     EDDAV:  cpu time   33.2520: real time   33.8619
 BZINTS: Fermi energy: -4.704077; 62.000000 electrons
         Band energy:-522.982697;  BLOECHL correction: -0.009509
       DOS:  cpu time    0.0040: real time    0.0071
    CHARGE:  cpu time    2.0600: real time    2.0936
    MIXING:  cpu time    0.0400: real time    0.0423
    --------------------------------------------
      LOOP:  cpu time   87.7760: real time   88.8447

 eigenvalue-minimisations  :  1488
 total energy-change (2. order) : 0.6374141E+00  (-0.7470324E-01)
 number of electron      61.9999986 magnetization       8.9046352
 augmentation part        5.5659474 magnetization       7.8709695

 Broyden mixing:
  rms(total) = 0.10897E+01    rms(broyden)= 0.10896E+01
  rms(prec ) = 0.11445E+01
  weight for this iteration     100.00

 eigenvalues of (default mixing * dielectric matrix)
  average eigenvalue GAMMA=   0.3587
  0.5999  0.4316  0.4316  0.2329  0.0975

 Free energy of the ion-electron system (eV)
  ---------------------------------------------------
  alpha Z        PSCENC =        25.99323537
  Ewald energy   TEWEN  =      7529.91642125
  -Hartree energ DENC   =    -10613.73136018
  -exchange      EXHF   =         0.00000000
  -V(xc)+E(xc)   XCENC  =        80.68611092
  PAW double counting   =      1880.16235490    -1928.31069528
  entropy T*S    EENTRO =         0.00000000
  eigenvalues    EBANDS =      -522.98269662
  atomic energy  EATOM  =      3509.95039935
  Solvation  Ediel_sol  =         0.00000000
  ---------------------------------------------------
  free energy    TOTEN  =       -38.31623031 eV

  energy without entropy =      -38.31623031  energy(sigma->0) =      -38.31623031


--------------------------------------------------------------------------------------------------------




--------------------------------------- Iteration      1(  11)  ---------------------------------------


    POTLOK:  cpu time   52.0360: real time   53.1396
    SETDIJ:  cpu time    0.0400: real time    0.0412
     EDDAV:  cpu time   27.5000: real time   28.4306
 BZINTS: Fermi energy: -4.694916; 62.000000 electrons
         Band energy:-523.040261;  BLOECHL correction: -0.009408
       DOS:  cpu time    0.0080: real time    0.0067
    CHARGE:  cpu time    2.0840: real time    2.0894
    MIXING:  cpu time    0.0480: real time    0.0478
    --------------------------------------------
      LOOP:  cpu time   81.7160: real time   83.7553

 eigenvalue-minimisations  :  1232
 total energy-change (2. order) :-0.1155585E-01  (-0.8127423E-02)
 number of electron      61.9999985 magnetization       8.8259389
 augmentation part        5.5056289 magnetization       7.7500872

 Broyden mixing:
  rms(total) = 0.10553E+01    rms(broyden)= 0.10553E+01
  rms(prec ) = 0.11068E+01
  weight for this iteration     100.00

 eigenvalues of (default mixing * dielectric matrix)
  average eigenvalue GAMMA=   0.3596
  0.5931  0.4365  0.4365  0.2497  0.2497  0.1923

 Free energy of the ion-electron system (eV)
  ---------------------------------------------------
  alpha Z        PSCENC =        25.99323537
  Ewald energy   TEWEN  =      7529.91642125
  -Hartree energ DENC   =    -10613.71540332
  -exchange      EXHF   =         0.00000000
  -V(xc)+E(xc)   XCENC  =        80.68563755
  PAW double counting   =      1880.12769633    -1928.24551124
  entropy T*S    EENTRO =         0.00000000
  eigenvalues    EBANDS =      -523.04026144
  atomic energy  EATOM  =      3509.95039935
  Solvation  Ediel_sol  =         0.00000000
  ---------------------------------------------------
  free energy    TOTEN  =       -38.32778615 eV

  energy without entropy =      -38.32778615  energy(sigma->0) =      -38.32778615


--------------------------------------------------------------------------------------------------------




--------------------------------------- Iteration      1(  12)  ---------------------------------------


    POTLOK:  cpu time   51.6800: real time   51.9392
    SETDIJ:  cpu time    0.0440: real time    0.0424
     EDDAV:  cpu time   29.1200: real time   29.4996
 BZINTS: Fermi energy: -4.724856; 62.000000 electrons
         Band energy:-524.977661;  BLOECHL correction: -0.010345
       DOS:  cpu time    0.0080: real time    0.0073
    CHARGE:  cpu time    2.0960: real time    2.1018
    MIXING:  cpu time    0.0440: real time    0.0451
    --------------------------------------------
      LOOP:  cpu time   82.9920: real time   83.6355

 eigenvalue-minimisations  :  1280
 total energy-change (2. order) :-0.1157957E+00  (-0.6206002E-01)
 number of electron      61.9999987 magnetization       8.7715894
 augmentation part        5.7137432 magnetization       8.0328030

 Broyden mixing:
  rms(total) = 0.15600E+01    rms(broyden)= 0.15599E+01
  rms(prec ) = 0.16477E+01
  weight for this iteration     100.00

 eigenvalues of (default mixing * dielectric matrix)
  average eigenvalue GAMMA=   0.3342
  0.6184  0.4393  0.4393  0.2910  0.2910  0.2064  0.0542

 Free energy of the ion-electron system (eV)
  ---------------------------------------------------
  alpha Z        PSCENC =        25.99323537
  Ewald energy   TEWEN  =      7529.91642125
  -Hartree energ DENC   =    -10612.27285539
  -exchange      EXHF   =         0.00000000
  -V(xc)+E(xc)   XCENC  =        80.68198264
  PAW double counting   =      1877.83167036    -1925.56677461
  entropy T*S    EENTRO =         0.00000000
  eigenvalues    EBANDS =      -524.97766082
  atomic energy  EATOM  =      3509.95039935
  Solvation  Ediel_sol  =         0.00000000
  ---------------------------------------------------
  free energy    TOTEN  =       -38.44358185 eV

  energy without entropy =      -38.44358185  energy(sigma->0) =      -38.44358185


--------------------------------------------------------------------------------------------------------




--------------------------------------- Iteration      1(  13)  ---------------------------------------


    POTLOK:  cpu time   50.9480: real time   52.2523
    SETDIJ:  cpu time    0.0440: real time    0.0454
     EDDAV:  cpu time   34.3600: real time   35.5022
 BZINTS: Fermi energy: -4.827723; 62.000000 electrons
         Band energy:-599.040924;  BLOECHL correction: -0.011440
       DOS:  cpu time    0.0040: real time    0.0067
    CHARGE:  cpu time    2.0680: real time    2.1037
    MIXING:  cpu time    0.0480: real time    0.0455
    --------------------------------------------
      LOOP:  cpu time   87.4720: real time   89.9558

 eigenvalue-minimisations  :  1552
 total energy-change (2. order) :-0.7365437E+02  (-0.7293907E+02)
 number of electron      61.9999986 magnetization       8.7712574
 augmentation part        5.0995873 magnetization       9.8901215

 Broyden mixing:
  rms(total) = 0.30290E+01    rms(broyden)= 0.29705E+01
  rms(prec ) = 0.30346E+01
  weight for this iteration     100.00

 eigenvalues of (default mixing * dielectric matrix)
  average eigenvalue GAMMA=   0.2931
  0.6184  0.4390  0.4390  0.2925  0.2925  0.2066  0.0542  0.0026

 Free energy of the ion-electron system (eV)
  ---------------------------------------------------
  alpha Z        PSCENC =        25.99323537
  Ewald energy   TEWEN  =      7529.91642125
  -Hartree energ DENC   =    -10611.97014230
  -exchange      EXHF   =         0.00000000
  -V(xc)+E(xc)   XCENC  =        80.67678561
  PAW double counting   =      1877.53621767    -1925.15994909
  entropy T*S    EENTRO =         0.00000000
  eigenvalues    EBANDS =      -599.04092391
  atomic energy  EATOM  =      3509.95039935
  Solvation  Ediel_sol  =         0.00000000
  ---------------------------------------------------
  free energy    TOTEN  =      -112.09795605 eV

  energy without entropy =     -112.09795605  energy(sigma->0) =     -112.09795605


--------------------------------------------------------------------------------------------------------




--------------------------------------- Iteration      1(  14)  ---------------------------------------


    POTLOK:  cpu time   51.5880: real time   52.0658
    SETDIJ:  cpu time    0.0440: real time    0.0428
     EDDAV:  cpu time   28.5440: real time   28.9548
 BZINTS: Fermi energy: -4.717081; 62.000000 electrons
         Band energy:-525.041142;  BLOECHL correction: -0.010413
       DOS:  cpu time    0.0040: real time    0.0074
    CHARGE:  cpu time    2.0160: real time    2.1108
    MIXING:  cpu time    0.0480: real time    0.0455
    --------------------------------------------
      LOOP:  cpu time   82.2440: real time   83.2272

 eigenvalue-minimisations  :  1264
 total energy-change (2. order) : 0.7508734E+02  (-0.2469748E+03)
 number of electron      61.9999986 magnetization       8.4016541
 augmentation part        5.7519710 magnetization       7.8457332

 Broyden mixing:
  rms(total) = 0.13945E+01    rms(broyden)= 0.13114E+01
  rms(prec ) = 0.13746E+01
  weight for this iteration     100.00

 eigenvalues of (default mixing * dielectric matrix)
  average eigenvalue GAMMA=   0.4054
  0.8441  0.8441  0.6907  0.3778  0.3778  0.2795  0.1787  0.0548  0.0009

 Free energy of the ion-electron system (eV)
  ---------------------------------------------------
  alpha Z        PSCENC =        25.99323537
  Ewald energy   TEWEN  =      7529.91642125
  -Hartree energ DENC   =    -10611.99573959
  -exchange      EXHF   =         0.00000000
  -V(xc)+E(xc)   XCENC  =        81.78986714
  PAW double counting   =      1877.50753193    -1925.13119264
  entropy T*S    EENTRO =         0.00000000
  eigenvalues    EBANDS =      -525.04114168
  atomic energy  EATOM  =      3509.95039935
  Solvation  Ediel_sol  =         0.00000000
  ---------------------------------------------------
  free energy    TOTEN  =       -37.01061887 eV

  energy without entropy =      -37.01061887  energy(sigma->0) =      -37.01061887


--------------------------------------------------------------------------------------------------------




--------------------------------------- Iteration      1(  15)  ---------------------------------------


    POTLOK:  cpu time   50.3920: real time   51.0782
    SETDIJ:  cpu time    0.0440: real time    0.0434
     EDDAV:  cpu time   26.0800: real time   26.3537
 BZINTS: Fermi energy: -4.729343; 62.000000 electrons
         Band energy:-526.105026;  BLOECHL correction: -0.008100
       DOS:  cpu time    0.0040: real time    0.0073
    CHARGE:  cpu time    2.1120: real time    2.1174
    MIXING:  cpu time    0.0480: real time    0.0469
    --------------------------------------------
      LOOP:  cpu time   78.6800: real time   79.6470

 eigenvalue-minimisations  :  1152
 total energy-change (2. order) :-0.9273154E+00  (-0.2730169E+00)
 number of electron      61.9999986 magnetization       7.6601578
 augmentation part        5.5193615 magnetization       7.0092002

 Broyden mixing:
  rms(total) = 0.11021E+01    rms(broyden)= 0.10980E+01
  rms(prec ) = 0.11457E+01
  weight for this iteration     100.00

 eigenvalues of (default mixing * dielectric matrix)
  average eigenvalue GAMMA=   0.4947
  1.2418  1.2418  0.5257  0.5257  0.3571  0.3571  0.4579  0.1851  0.0542  0.0009

 Free energy of the ion-electron system (eV)
  ---------------------------------------------------
  alpha Z        PSCENC =        25.99323537
  Ewald energy   TEWEN  =      7529.91642125
  -Hartree energ DENC   =    -10611.23360846
  -exchange      EXHF   =         0.00000000
  -V(xc)+E(xc)   XCENC  =        80.74983858
  PAW double counting   =      1877.20213452    -1924.41132921
  entropy T*S    EENTRO =         0.00000000
  eigenvalues    EBANDS =      -526.10502566
  atomic energy  EATOM  =      3509.95039935
  Solvation  Ediel_sol  =         0.00000000
  ---------------------------------------------------
  free energy    TOTEN  =       -37.93793427 eV

  energy without entropy =      -37.93793427  energy(sigma->0) =      -37.93793427


--------------------------------------------------------------------------------------------------------




--------------------------------------- Iteration      1(  16)  ---------------------------------------


    POTLOK:  cpu time   50.7920: real time   50.9336
    SETDIJ:  cpu time    0.0440: real time    0.0428
     EDDAV:  cpu time   31.2400: real time   31.5184
 BZINTS: Fermi energy: -4.566803; 62.000000 electrons
         Band energy:-524.587771;  BLOECHL correction: -0.008875
       DOS:  cpu time    0.0040: real time    0.0074
    CHARGE:  cpu time    2.0680: real time    2.0768
    MIXING:  cpu time    0.0680: real time    0.0672
    --------------------------------------------
      LOOP:  cpu time   84.2160: real time   84.6462

 eigenvalue-minimisations  :  1392
 total energy-change (2. order) :-0.2479090E+00  (-0.1373377E+00)
 number of electron      61.9999987 magnetization       7.5109749
 augmentation part        4.2086017 magnetization       5.5110535

 Broyden mixing:
  rms(total) = 0.91511E+00    rms(broyden)= 0.91484E+00
  rms(prec ) = 0.96714E+00
  weight for this iteration     100.00

 eigenvalues of (default mixing * dielectric matrix)
  average eigenvalue GAMMA=   0.4796
  1.1829  1.1829  0.6337  0.6337  0.3673  0.3673  0.3757  0.2910  0.1853  0.0542
  0.0009

 Free energy of the ion-electron system (eV)
  ---------------------------------------------------
  alpha Z        PSCENC =        25.99323537
  Ewald energy   TEWEN  =      7529.91642125
  -Hartree energ DENC   =    -10612.97691166
  -exchange      EXHF   =         0.00000000
  -V(xc)+E(xc)   XCENC  =        80.62584607
  PAW double counting   =      1882.08295651    -1929.19001939
  entropy T*S    EENTRO =         0.00000000
  eigenvalues    EBANDS =      -524.58777074
  atomic energy  EATOM  =      3509.95039935
  Solvation  Ediel_sol  =         0.00000000
  ---------------------------------------------------
  free energy    TOTEN  =       -38.18584326 eV

  energy without entropy =      -38.18584326  energy(sigma->0) =      -38.18584326


--------------------------------------------------------------------------------------------------------




--------------------------------------- Iteration      1(  17)  ---------------------------------------


    POTLOK:  cpu time   50.7200: real time   50.9685
    SETDIJ:  cpu time    0.0400: real time    0.0429
     EDDAV:  cpu time   30.8160: real time   31.1047
 BZINTS: Fermi energy: -4.638317; 62.000000 electrons
         Band energy:-525.273050;  BLOECHL correction: -0.001001
       DOS:  cpu time    0.0040: real time    0.0072
    CHARGE:  cpu time    2.0840: real time    2.0844
    MIXING:  cpu time    0.0480: real time    0.0481
    --------------------------------------------
      LOOP:  cpu time   83.7120: real time   84.2559

 eigenvalue-minimisations  :  1376
 total energy-change (2. order) :-0.1796048E-01  (-0.3069188E-01)
 number of electron      61.9999987 magnetization       7.3605466
 augmentation part        4.4776737 magnetization       5.5575086

 Broyden mixing:
  rms(total) = 0.40453E+00    rms(broyden)= 0.40450E+00
  rms(prec ) = 0.41879E+00
  weight for this iteration     100.00

 eigenvalues of (default mixing * dielectric matrix)
  average eigenvalue GAMMA=   0.5416
  1.3442  1.3442  0.8154  0.8154  0.3632  0.3632  0.4869  0.3633  0.3633  0.1852
  0.0542  0.0009

 Free energy of the ion-electron system (eV)
  ---------------------------------------------------
  alpha Z        PSCENC =        25.99323537
  Ewald energy   TEWEN  =      7529.91642125
  -Hartree energ DENC   =    -10612.25634929
  -exchange      EXHF   =         0.00000000
  -V(xc)+E(xc)   XCENC  =        80.64220203
  PAW double counting   =      1880.84790491    -1928.02456729
  entropy T*S    EENTRO =         0.00000000
  eigenvalues    EBANDS =      -525.27305006
  atomic energy  EATOM  =      3509.95039935
  Solvation  Ediel_sol  =         0.00000000
  ---------------------------------------------------
  free energy    TOTEN  =       -38.20380374 eV

  energy without entropy =      -38.20380374  energy(sigma->0) =      -38.20380374


--------------------------------------------------------------------------------------------------------




--------------------------------------- Iteration      1(  18)  ---------------------------------------


    POTLOK:  cpu time   50.6920: real time   50.9474
    SETDIJ:  cpu time    0.0440: real time    0.0413
     EDDAV:  cpu time   30.3840: real time   30.9047
 BZINTS: Fermi energy: -4.609300; 62.000000 electrons
         Band energy:-523.962240;  BLOECHL correction: -0.005445
       DOS:  cpu time    0.0080: real time    0.0075
    CHARGE:  cpu time    2.0840: real time    2.0844
    MIXING:  cpu time    0.0480: real time    0.0502
    --------------------------------------------
      LOOP:  cpu time   83.2600: real time   84.0355

 eigenvalue-minimisations  :  1360
 total energy-change (2. order) :-0.1255662E+00  (-0.6019686E-01)
 number of electron      61.9999987 magnetization       7.3485973
 augmentation part        4.4442171 magnetization       5.3941068

 Broyden mixing:
  rms(total) = 0.56500E+00    rms(broyden)= 0.56493E+00
  rms(prec ) = 0.60364E+00
  weight for this iteration     100.00

 eigenvalues of (default mixing * dielectric matrix)
  average eigenvalue GAMMA=   0.5185
  1.3084  1.3084  0.8208  0.8208  0.4416  0.4416  0.3602  0.3602  0.3189  0.3189
  0.1851  0.0542  0.0009

 Free energy of the ion-electron system (eV)
  ---------------------------------------------------
  alpha Z        PSCENC =        25.99323537
  Ewald energy   TEWEN  =      7529.91642125
  -Hartree energ DENC   =    -10613.29468017
  -exchange      EXHF   =         0.00000000
  -V(xc)+E(xc)   XCENC  =        80.64899631
  PAW double counting   =      1882.60809686    -1930.18959904
  entropy T*S    EENTRO =         0.00000000
  eigenvalues    EBANDS =      -523.96223984
  atomic energy  EATOM  =      3509.95039935
  Solvation  Ediel_sol  =         0.00000000
  ---------------------------------------------------
  free energy    TOTEN  =       -38.32936991 eV

  energy without entropy =      -38.32936991  energy(sigma->0) =      -38.32936991


--------------------------------------------------------------------------------------------------------




--------------------------------------- Iteration      1(  19)  ---------------------------------------


    POTLOK:  cpu time   50.6760: real time   50.8656
    SETDIJ:  cpu time    0.0400: real time    0.0420
     EDDAV:  cpu time   29.1320: real time   29.3249
 BZINTS: Fermi energy: -4.634847; 62.000000 electrons
         Band energy:-524.197901;  BLOECHL correction: -0.003575
       DOS:  cpu time    0.0040: real time    0.0072
    CHARGE:  cpu time    2.0760: real time    2.0767
    MIXING:  cpu time    0.0480: real time    0.0505
    --------------------------------------------
      LOOP:  cpu time   81.9760: real time   82.3670

 eigenvalue-minimisations  :  1280
 total energy-change (2. order) : 0.2205847E-01  (-0.1124992E-01)
 number of electron      61.9999987 magnetization       7.2171792
 augmentation part        4.6259420 magnetization       5.5866714

 Broyden mixing:
  rms(total) = 0.34336E+00    rms(broyden)= 0.34335E+00
  rms(prec ) = 0.35668E+00
  weight for this iteration     100.00

 eigenvalues of (default mixing * dielectric matrix)
  average eigenvalue GAMMA=   0.5634
  1.9454  0.8859  0.8859  0.9545  0.4903  0.4903  0.5319  0.3680  0.3680  0.3637
  0.3637  0.1851  0.0542  0.0009

 Free energy of the ion-electron system (eV)
  ---------------------------------------------------
  alpha Z        PSCENC =        25.99323537
  Ewald energy   TEWEN  =      7529.91642125
  -Hartree energ DENC   =    -10613.02972168
  -exchange      EXHF   =         0.00000000
  -V(xc)+E(xc)   XCENC  =        80.65072452
  PAW double counting   =      1882.04198530    -1929.63245420
  entropy T*S    EENTRO =         0.00000000
  eigenvalues    EBANDS =      -524.19790134
  atomic energy  EATOM  =      3509.95039935
  Solvation  Ediel_sol  =         0.00000000
  ---------------------------------------------------
  free energy    TOTEN  =       -38.30731144 eV

  energy without entropy =      -38.30731144  energy(sigma->0) =      -38.30731144


--------------------------------------------------------------------------------------------------------




--------------------------------------- Iteration      1(  20)  ---------------------------------------


    POTLOK:  cpu time   50.8480: real time   50.9556
    SETDIJ:  cpu time    0.0400: real time    0.0409
     EDDAV:  cpu time   28.7160: real time   29.0393
 BZINTS: Fermi energy: -4.606042; 62.000000 electrons
         Band energy:-523.462406;  BLOECHL correction: -0.001669
       DOS:  cpu time    0.0040: real time    0.0075
    CHARGE:  cpu time    2.0080: real time    2.0792
    MIXING:  cpu time    0.0520: real time    0.0517
    --------------------------------------------
      LOOP:  cpu time   81.6680: real time   82.1744

 eigenvalue-minimisations  :  1280
 total energy-change (2. order) :-0.4144343E-01  (-0.4188726E-01)
 number of electron      61.9999987 magnetization       7.1350804
 augmentation part        4.4491341 magnetization       5.2271885

 Broyden mixing:
  rms(total) = 0.58951E+00    rms(broyden)= 0.58946E+00
  rms(prec ) = 0.62099E+00
  weight for this iteration     100.00

 eigenvalues of (default mixing * dielectric matrix)
  average eigenvalue GAMMA=   0.5993
  2.0400  1.0875  1.0875  0.9609  0.6547  0.6547  0.4182  0.4182  0.3622  0.3622
  0.3515  0.3515  0.1851  0.0542  0.0009

 Free energy of the ion-electron system (eV)
  ---------------------------------------------------
  alpha Z        PSCENC =        25.99323537
  Ewald energy   TEWEN  =      7529.91642125
  -Hartree energ DENC   =    -10613.60725090
  -exchange      EXHF   =         0.00000000
  -V(xc)+E(xc)   XCENC  =        80.65760718
  PAW double counting   =      1882.96880878    -1930.76556960
  entropy T*S    EENTRO =         0.00000000
  eigenvalues    EBANDS =      -523.46240631
  atomic energy  EATOM  =      3509.95039935
  Solvation  Ediel_sol  =         0.00000000
  ---------------------------------------------------
  free energy    TOTEN  =       -38.34875487 eV

  energy without entropy =      -38.34875487  energy(sigma->0) =      -38.34875487


--------------------------------------------------------------------------------------------------------




--------------------------------------- Iteration      1(  21)  ---------------------------------------


    POTLOK:  cpu time   50.7720: real time   50.9489
    SETDIJ:  cpu time    0.0600: real time    0.0590
     EDDAV:  cpu time   27.8360: real time   28.1762
 BZINTS: Fermi energy: -4.603246; 62.000000 electrons
         Band energy:-521.275200;  BLOECHL correction: -0.003000
       DOS:  cpu time    0.0040: real time    0.0072
    CHARGE:  cpu time    2.0600: real time    2.0618
    MIXING:  cpu time    0.0560: real time    0.0530
    --------------------------------------------
      LOOP:  cpu time   80.7880: real time   81.3061

 eigenvalue-minimisations  :  1232
 total energy-change (2. order) :-0.3549809E-01  (-0.4066334E-01)
 number of electron      61.9999986 magnetization       6.8045063
 augmentation part        4.6560563 magnetization       5.1869376

 Broyden mixing:
  rms(total) = 0.29173E+00    rms(broyden)= 0.29169E+00
  rms(prec ) = 0.30208E+00
  weight for this iteration     100.00

 eigenvalues of (default mixing * dielectric matrix)
  average eigenvalue GAMMA=   0.6815
  2.7274  1.1814  1.1814  1.0686  1.0686  0.5844  0.5844  0.4197  0.4197  0.3632
  0.3632  0.3506  0.3506  0.1851  0.0542  0.0009

 Free energy of the ion-electron system (eV)
  ---------------------------------------------------
  alpha Z        PSCENC =        25.99323537
  Ewald energy   TEWEN  =      7529.91642125
  -Hartree energ DENC   =    -10615.16145835
  -exchange      EXHF   =         0.00000000
  -V(xc)+E(xc)   XCENC  =        80.69418074
  PAW double counting   =      1884.91834159    -1933.42017306
  entropy T*S    EENTRO =         0.00000000
  eigenvalues    EBANDS =      -521.27519985
  atomic energy  EATOM  =      3509.95039935
  Solvation  Ediel_sol  =         0.00000000
  ---------------------------------------------------
  free energy    TOTEN  =       -38.38425296 eV

  energy without entropy =      -38.38425296  energy(sigma->0) =      -38.38425296


--------------------------------------------------------------------------------------------------------




--------------------------------------- Iteration      1(  22)  ---------------------------------------


    POTLOK:  cpu time   50.6960: real time   50.8795
    SETDIJ:  cpu time    0.0440: real time    0.0450
     EDDAV:  cpu time   31.6920: real time   32.0741
 BZINTS: Fermi energy: -4.635227; 62.000000 electrons
         Band energy:-522.000668;  BLOECHL correction: -0.009334
       DOS:  cpu time    0.0080: real time    0.0072
    CHARGE:  cpu time    2.0880: real time    2.0943
    MIXING:  cpu time    0.0560: real time    0.0557
    --------------------------------------------
      LOOP:  cpu time   84.5840: real time   85.1559

 eigenvalue-minimisations  :  1424
 total energy-change (2. order) :-0.1700444E+00  (-0.1859456E-01)
 number of electron      61.9999986 magnetization       6.5834499
 augmentation part        5.1770945 magnetization       5.6182133

 Broyden mixing:
  rms(total) = 0.71512E+00    rms(broyden)= 0.71511E+00
  rms(prec ) = 0.74753E+00
  weight for this iteration     100.00

 eigenvalues of (default mixing * dielectric matrix)
  average eigenvalue GAMMA=   0.7039
  3.0768  1.1442  1.1442  1.1702  1.1702  0.6406  0.6406  0.4202  0.4202  0.3632
  0.3632  0.4649  0.3537  0.3537  0.1851  0.0542  0.0009

 Free energy of the ion-electron system (eV)
  ---------------------------------------------------
  alpha Z        PSCENC =        25.99323537
  Ewald energy   TEWEN  =      7529.91642125
  -Hartree energ DENC   =    -10614.30538801
  -exchange      EXHF   =         0.00000000
  -V(xc)+E(xc)   XCENC  =        80.76842817
  PAW double counting   =      1882.27404162    -1931.15076713
  entropy T*S    EENTRO =         0.00000000
  eigenvalues    EBANDS =      -522.00066796
  atomic energy  EATOM  =      3509.95039935
  Solvation  Ediel_sol  =         0.00000000
[...]
     34      -1.4680      0.00000
     35      -1.2296      0.00000
     36      -0.3888      0.00000
     37       0.5760      0.00000
     38       1.3865      0.00000
     39       1.6786      0.00000
     40       2.1702      0.00000
     41       2.3472      0.00000
     42       2.6479      0.00000
     43       2.7394      0.00000
     44       2.8811      0.00000
     45       3.2411      0.00000
     46       3.4090      0.00000
     47       3.9076      0.00000
     48       4.0853      0.00000

 k-point     5 :      -0.4000    0.2000    0.0000
  band No.  band energies     occupation 
      1     -16.5758      1.00000
      2     -16.3681      1.00000
      3     -15.8647      1.00000
      4     -15.6892      1.00000
      5     -15.5100      1.00000
      6     -15.3009      1.00000
      7     -11.1505      1.00000
      8      -9.5984      1.00000
      9      -8.2275      1.00000
     10      -7.6644      1.00000
     11      -7.6517      1.00000
     12      -7.1430      1.00000
     13      -6.8135      1.00000
     14      -6.6906      1.00000
     15      -6.4600      1.00000
     16      -6.0443      1.00000
     17      -5.9367      1.00000
     18      -5.8842      1.00000
     19      -5.6957      1.00000
     20      -5.4576      1.00000
     21      -5.3270      1.00000
     22      -4.5197      1.00000
     23      -4.4362      1.00000
     24      -4.2568      1.00000
     25      -4.1859      1.00000
     26      -3.5982      1.00000
     27      -3.5326      1.00000
     28      -3.4353      1.00000
     29      -3.3260      1.00000
     30      -3.2356      1.00000
     31      -3.1078      1.00000
     32      -1.8618      0.00000
     33      -1.7143      0.00000
     34      -1.5212      0.00000
     35      -1.1615      0.00000
     36      -0.7635      0.00000
     37       0.4653      0.00000
     38       1.1555      0.00000
     39       1.1904      0.00000
     40       2.0014      0.00000
     41       2.1054      0.00000
     42       2.3127      0.00000
     43       3.2042      0.00000
     44       3.2831      0.00000
     45       3.3367      0.00000
     46       3.4464      0.00000
     47       3.9450      0.00000
     48       4.1129      0.00000


--------------------------------------------------------------------------------------------------------


 soft charge-density along one line, spin component           1
         0         1         2         3         4         5         6         7         8         9
 total charge-density along one line

 soft charge-density along one line, spin component           2
         0         1         2         3         4         5         6         7         8         9
 total charge-density along one line

 pseudopotential strength for first ion, spin component:           1
-10.320  -0.098  -0.000   0.014  -0.000   0.978   0.035   0.000
 -0.098 -10.452   0.000  -0.000   0.014   0.035   1.024  -0.000
 -0.000   0.000 -10.290   0.000   0.000   0.000  -0.000   0.967
  0.014  -0.000   0.000 -10.452   0.098  -0.005   0.000  -0.000
 -0.000   0.014   0.000   0.098 -10.320   0.000  -0.005  -0.000
  0.978   0.035   0.000  -0.005   0.000   0.676  -0.013  -0.000
  0.035   1.024  -0.000   0.000  -0.005  -0.013   0.659   0.000
  0.000  -0.000   0.967  -0.000  -0.000  -0.000   0.000   0.681
 -0.005   0.000  -0.000   1.024  -0.035   0.002  -0.000   0.000
  0.000  -0.005  -0.000  -0.035   0.978  -0.000   0.002   0.000
 -0.000  -0.000   0.007  -0.000   0.000  -0.000  -0.000  -0.002
  0.000   0.000  -0.001   0.000  -0.000  -0.000  -0.000   0.000
 -0.001  -0.008   0.000  -0.000   0.001   0.000   0.003  -0.000
 -0.000  -0.000  -0.007  -0.000  -0.000  -0.000   0.000   0.002
  0.001  -0.000   0.000  -0.008   0.001   0.000  -0.000  -0.000
  0.001   0.004  -0.000   0.000  -0.001  -0.000  -0.001   0.000
  0.000   0.000   0.003   0.000   0.000  -0.000  -0.000  -0.001
 -0.001   0.000  -0.000   0.004  -0.001   0.000  -0.000   0.000
 pseudopotential strength for first ion, spin component:           2
-10.320  -0.098  -0.000   0.014  -0.000   0.978   0.035   0.000
 -0.098 -10.452   0.000  -0.000   0.014   0.035   1.024  -0.000
 -0.000   0.000 -10.290   0.000   0.000   0.000  -0.000   0.967
  0.014  -0.000   0.000 -10.452   0.098  -0.005   0.000  -0.000
 -0.000   0.014   0.000   0.098 -10.320   0.000  -0.005  -0.000
  0.978   0.035   0.000  -0.005   0.000   0.676  -0.013  -0.000
  0.035   1.024  -0.000   0.000  -0.005  -0.013   0.659   0.000
  0.000  -0.000   0.967  -0.000  -0.000  -0.000   0.000   0.681
 -0.005   0.000  -0.000   1.024  -0.035   0.002  -0.000   0.000
  0.000  -0.005  -0.000  -0.035   0.978  -0.000   0.002   0.000
 -0.000  -0.000   0.007  -0.000   0.000  -0.000  -0.000  -0.002
  0.000   0.000  -0.001   0.000  -0.000  -0.000  -0.000   0.000
 -0.001  -0.008   0.000  -0.000   0.001   0.000   0.003  -0.000
 -0.000  -0.000  -0.007  -0.000  -0.000  -0.000   0.000   0.002
  0.001  -0.000   0.000  -0.008   0.001   0.000  -0.000  -0.000
  0.001   0.004  -0.000   0.000  -0.001  -0.000  -0.001   0.000
  0.000   0.000   0.003   0.000   0.000  -0.000  -0.000  -0.001
 -0.001   0.000  -0.000   0.004  -0.001   0.000  -0.000   0.000
 total augmentation occupancy for first ion, spin component:           1
  1.691  -0.311   0.000   0.040  -0.000   0.087   0.195   0.000  -0.030  -0.000  -0.000  -0.000  -0.015  -0.000   0.010   0.001
 -0.311   1.401  -0.000  -0.000   0.040   0.190   0.276   0.000  -0.000  -0.029   0.000   0.000  -0.030   0.000   0.008   0.002
  0.000  -0.000   1.929  -0.000  -0.000   0.000   0.000  -0.073   0.000  -0.000  -0.019  -0.008  -0.000  -0.005  -0.000   0.000
  0.040  -0.000  -0.000   1.401   0.311  -0.029   0.000   0.000   0.276  -0.190   0.000   0.000  -0.008  -0.000  -0.030   0.000
 -0.000   0.040  -0.000   0.311   1.691   0.000  -0.030  -0.000  -0.195   0.087   0.000   0.000   0.010   0.000   0.015  -0.001
  0.087   0.190   0.000  -0.029   0.000   0.121   0.058   0.000  -0.009  -0.000   0.000  -0.000  -0.003  -0.000   0.028   0.000
  0.195   0.276   0.000   0.000  -0.030   0.058   0.193   0.000  -0.000  -0.009  -0.000  -0.000  -0.018  -0.000  -0.006   0.002
  0.000   0.000  -0.073   0.000  -0.000   0.000   0.000   0.116   0.000  -0.000   0.043  -0.019  -0.000  -0.007   0.000   0.000
 -0.030  -0.000   0.000   0.276  -0.195  -0.009  -0.000   0.000   0.193  -0.058   0.000   0.000   0.006   0.000  -0.018  -0.000
 -0.000  -0.029  -0.000  -0.190   0.087  -0.000  -0.009  -0.000  -0.058   0.121  -0.000   0.000   0.028   0.000   0.003  -0.004
 -0.000   0.000  -0.019  -0.000   0.000   0.000  -0.000   0.043   0.000  -0.000   1.094  -0.348  -0.000  -0.037  -0.000   0.000
 -0.000   0.000  -0.008   0.000   0.000  -0.000  -0.000  -0.019   0.000   0.000  -0.348   0.192   0.000   0.014  -0.000  -0.000
 -0.015  -0.030  -0.000  -0.008   0.010  -0.003  -0.018  -0.000   0.006   0.028  -0.000   0.000   0.223   0.000  -0.000  -0.018
 -0.000   0.000  -0.005  -0.000   0.000  -0.000  -0.000  -0.007   0.000   0.000  -0.037   0.014   0.000   0.234  -0.000  -0.000
  0.010   0.008  -0.000  -0.030   0.015   0.028  -0.006   0.000  -0.018   0.003   0.000  -0.000  -0.000  -0.000   0.223   0.000
  0.001   0.002   0.000   0.000  -0.001   0.000   0.002   0.000  -0.000  -0.004   0.000  -0.000  -0.018  -0.000   0.000   0.002
  0.000   0.000   0.000  -0.000  -0.000   0.000   0.000   0.001  -0.000  -0.000   0.004  -0.003  -0.000  -0.021   0.000   0.000
 -0.001  -0.000  -0.000   0.002  -0.001  -0.004   0.000  -0.000   0.002  -0.000  -0.000   0.000  -0.000   0.000  -0.018  -0.000
 total augmentation occupancy for first ion, spin component:           2
 -0.000   0.000  -0.000  -0.000  -0.000  -0.000   0.000  -0.000  -0.000   0.000   0.000   0.000  -0.000   0.000   0.000  -0.000
  0.000   0.000   0.000  -0.000  -0.000   0.000  -0.000   0.000   0.000  -0.000   0.000   0.000   0.000   0.000   0.000   0.000
 -0.000   0.000  -0.000   0.000   0.000  -0.000   0.000  -0.000   0.000   0.000   0.000   0.000  -0.000   0.000   0.000  -0.000
 -0.000  -0.000   0.000   0.000  -0.000  -0.000  -0.000   0.000  -0.000  -0.000  -0.000  -0.000  -0.000  -0.000   0.000   0.000
  0.000  -0.000   0.000  -0.000  -0.000  -0.000  -0.000   0.000  -0.000  -0.000  -0.000  -0.000   0.000  -0.000   0.000   0.000
 -0.000   0.000  -0.000  -0.000  -0.000   0.000  -0.000   0.000   0.000  -0.000   0.000  -0.000  -0.000  -0.000   0.000   0.000
  0.000  -0.000   0.000  -0.000  -0.000  -0.000   0.000  -0.000  -0.000   0.000   0.000  -0.000  -0.000  -0.000   0.000  -0.000
 -0.000   0.000  -0.000   0.000   0.000   0.000  -0.000   0.000  -0.000  -0.000   0.000  -0.000  -0.000  -0.000   0.000   0.000
 -0.000   0.000   0.000  -0.000  -0.000   0.000  -0.000  -0.000   0.000   0.000  -0.000   0.000  -0.000  -0.000  -0.000  -0.000
  0.000  -0.000   0.000  -0.000  -0.000   0.000   0.000  -0.000   0.000   0.000  -0.000   0.000   0.000   0.000   0.000  -0.000
  0.000   0.000   0.000  -0.000  -0.000   0.000   0.000   0.000  -0.000  -0.000  -0.000  -0.000  -0.000  -0.000   0.000  -0.000
  0.000   0.000   0.000  -0.000  -0.000  -0.000  -0.000  -0.000   0.000   0.000  -0.000   0.000  -0.000  -0.000   0.000   0.000
 -0.000   0.000  -0.000  -0.000   0.000  -0.000  -0.000  -0.000  -0.000   0.000  -0.000  -0.000  -0.000  -0.000   0.000  -0.000
  0.000   0.000   0.000  -0.000  -0.000  -0.000  -0.000  -0.000  -0.000   0.000  -0.000  -0.000  -0.000   0.000   0.000  -0.000
  0.000   0.000   0.000   0.000   0.000   0.000   0.000   0.000  -0.000   0.000  -0.000   0.000   0.000   0.000  -0.000   0.000
 -0.000   0.000  -0.000   0.000   0.000   0.000  -0.000   0.000  -0.000  -0.000  -0.000   0.000  -0.000  -0.000   0.000   0.000
  0.000   0.000   0.000   0.000  -0.000   0.000  -0.000   0.000  -0.000  -0.000  -0.000   0.000  -0.000   0.000   0.000  -0.000
  0.000  -0.000   0.000   0.000   0.000  -0.000   0.000  -0.000  -0.000  -0.000   0.000  -0.000  -0.000  -0.000  -0.000  -0.000


------------------------ aborting loop because EDIFF is reached ----------------------------------------





 total charge     

# of ion       s       p       d       tot
------------------------------------------
    1        0.395   0.520   7.376   8.291
    2        0.396   0.520   7.372   8.288
    3        1.149   1.198   0.124   2.470
    4        0.734   0.909   0.000   1.642
    5        1.365   2.321   0.000   3.686
    6        1.359   2.358   0.000   3.717
    7        1.364   2.330   0.000   3.694
    8        1.373   2.286   0.000   3.659
    9        1.370   2.316   0.000   3.687
   10        1.373   2.290   0.000   3.663
--------------------------------------------------
tot         10.878  17.047  14.872  42.797



 magnetization (x)

# of ion       s       p       d       tot
------------------------------------------
    1       -0.000  -0.000   0.000  -0.000
    2       -0.000  -0.000   0.000   0.000
    3       -0.000  -0.000   0.000  -0.000
    4        0.000   0.000   0.000   0.000
    5        0.000  -0.000   0.000   0.000
    6        0.000   0.000   0.000   0.000
    7        0.000   0.000   0.000   0.000
    8        0.000  -0.000   0.000   0.000
    9        0.000  -0.000   0.000   0.000
   10        0.000  -0.000   0.000   0.000
--------------------------------------------------
tot          0.000  -0.000   0.000   0.000

    CHARGE:  cpu time    2.0600: real time    2.0909
    FORLOC:  cpu time    0.0640: real time    0.0647
    FORNL :  cpu time    6.9960: real time    7.0343
    STRESS:  cpu time   20.5520: real time   20.9097
    FORCOR:  cpu time   51.7240: real time   52.0016
    FORHAR:  cpu time    0.3400: real time    0.3386
    MIXING:  cpu time    0.0400: real time    0.0414
    OFIELD:  cpu time    0.0000: real time    0.0001

  FORCE on cell =-STRESS in cart. coord.  units (eV):
  Direction    XX          YY          ZZ          XY          YZ          ZX
  --------------------------------------------------------------------------------------
  Alpha Z    40.36214    40.36214    40.36214
  Ewald   12468.83616 12468.83390-14593.44220    -0.00235    -0.00056    -0.00101
  Hartree 13055.54554 13055.54649-12606.10720    -0.00049     0.00005     0.00008
  E(xc)    -250.34494  -250.34495  -249.94584     0.00003     0.00000     0.00001
  Local  -26421.51656-26421.51657 26268.50600     0.00236     0.00033     0.00061
  n-local   430.86776   431.19127   433.82668     0.10945     0.93377     0.85241
  augment   -11.97051   -11.97052   -16.25378     0.00015    -0.00006     0.00011
  Kinetic   690.83370   685.81441   723.44131    -3.22828     1.67015     1.79589
  Fock        0.00000     0.00000     0.00000     0.00000     0.00000     0.00000
  -------------------------------------------------------------------------------------
  Total       0.26473     0.26473     0.38711     0.00000     0.00000     0.00000
  in kB       0.67980     0.67980     0.99406     0.00000     0.00000     0.00000
  external pressure =        0.78 kB  Pullay stress =        0.00 kB


 VOLUME and BASIS-vectors are now :
 -----------------------------------------------------------------------------
  energy-cutoff  :      520.00
  volume of cell :      623.93
      direct lattice vectors                 reciprocal lattice vectors
     5.825872522 -0.000000230 -0.000000000     0.171648105 -0.099101083  0.000000000
     2.912936197  5.045353296  0.000000000     0.000000008  0.198202171 -0.000000000
    -0.000000000  0.000000000 21.226743114     0.000000000 -0.000000000  0.047110383

  length of vectors
     5.825872522  5.825872224 21.226743114     0.198202161  0.198202171  0.047110383


 FORCES acting on ions
    electron-ion (+dipol)            ewald-force                    non-local-force                 convergence-correction
 -----------------------------------------------------------------------------------------------
   -.865E-04 -.582E-04 -.936E+01   0.778E-03 0.464E-03 0.950E+01   0.865E-19 -.280E-16 -.121E+00   -.331E-06 -.126E-06 -.149E-01
   0.868E-04 0.647E-04 -.953E+01   -.776E-03 -.463E-03 0.967E+01   0.906E-19 -.280E-16 -.127E+00   -.225E-07 0.893E-07 -.101E-01
   -.353E-04 -.117E-04 0.281E+03   -.203E-03 -.115E-03 -.276E+03   0.314E-16 -.321E-16 -.507E+01   -.760E-07 -.454E-07 -.264E-01
   0.207E-04 0.363E-04 -.281E+03   0.219E-03 0.123E-03 0.274E+03   0.646E-16 0.566E-16 0.670E+01   -.608E-07 -.310E-07 0.217E-01
   -.275E+02 -.249E-01 -.569E+03   0.237E+02 0.570E-01 0.574E+03   0.385E+01 0.219E-02 -.482E+01   0.112E-01 -.331E-01 0.522E-01
   0.137E+02 0.238E+02 -.569E+03   -.118E+02 -.205E+02 0.574E+03   -.193E+01 -.334E+01 -.482E+01   -.342E-01 0.686E-02 0.522E-01
   0.138E+02 -.238E+02 -.569E+03   -.119E+02 0.205E+02 0.574E+03   -.193E+01 0.334E+01 -.482E+01   0.230E-01 0.262E-01 0.522E-01
   0.388E+02 -.287E-02 0.575E+03   -.346E+02 0.370E-01 -.579E+03   -.419E+01 0.542E-02 0.493E+01   -.736E-02 -.367E-01 -.565E-01
   -.194E+02 -.336E+02 0.575E+03   0.173E+02 0.299E+02 -.579E+03   0.210E+01 0.363E+01 0.493E+01   -.281E-01 0.247E-01 -.565E-01
   -.194E+02 0.336E+02 0.575E+03   0.173E+02 -.300E+02 -.579E+03   0.209E+01 -.363E+01 0.493E+01   0.355E-01 0.120E-01 -.565E-01
 -----------------------------------------------------------------------------------------------
   0.265E-04 0.254E-04 -.169E+01   -.249E-13 -.355E-14 0.341E-12   0.444E-15 0.133E-14 0.174E+01   -.581E-06 -.150E-06 -.427E-01


 POSITION                                       TOTAL-FORCE (eV/Angst)
 -----------------------------------------------------------------------------------
      2.91293      1.68178     10.62424        -0.000000     -0.000000      0.005166
      5.82588      3.36357     10.62455        -0.000000     -0.000000      0.000928
     -0.00000      0.00000      9.51417         0.000000     -0.000000     -0.220075
     -0.00000      0.00000     11.79580        -0.000000     -0.000000      0.016809
      3.68433     -0.00014     12.07960         0.010684      0.002080      0.018137
      1.07066      1.85471     12.07960        -0.003541     -0.010293      0.018137
      3.98383      3.19079     12.07960        -0.007144      0.008213      0.018137
      2.28840     -0.00022      9.21635         0.046434      0.002038      0.047587
      1.76854      3.06365      9.21635        -0.021452     -0.041233      0.047587
      4.68186      1.98192      9.21635        -0.024982      0.039194      0.047587
 -----------------------------------------------------------------------------------
    total drift:                                0.000026      0.000025      0.001181


--------------------------------------------------------------------------------------------------------



  FREE ENERGIE OF THE ION-ELECTRON SYSTEM (eV)
  ---------------------------------------------------
  free  energy   TOTEN  =       -47.54875042 eV

  energy  without entropy=      -47.54875042  energy(sigma->0) =      -47.54875042

 d Force =-0.2888958E-03[-0.340E-03,-0.238E-03]  d Energy = 0.3532775E-03-0.642E-03
 d Force = 0.1747613E+01[ 0.175E+01, 0.175E+01]  d Ewald  = 0.1686624E+02-0.151E+02


--------------------------------------------------------------------------------------------------------


    POTLOK:  cpu time   51.8240: real time   52.6179


--------------------------------------------------------------------------------------------------------




--------------------------------------------------------------------------------------------------------


  
 reached required accuracy - stopping structural energy minimisation
     LOOP+:  cpu time  528.9480: real time  534.4565
    4ORBIT:  cpu time    0.0000: real time    0.0000



 total charge     

# of ion       s       p       d       tot
------------------------------------------
    1        0.395   0.520   7.376   8.291
    2        0.396   0.520   7.372   8.288
    3        1.149   1.198   0.124   2.470
    4        0.734   0.909   0.000   1.642
    5        1.365   2.321   0.000   3.686
    6        1.359   2.358   0.000   3.717
    7        1.364   2.330   0.000   3.694
    8        1.373   2.286   0.000   3.659
    9        1.370   2.316   0.000   3.687
   10        1.373   2.290   0.000   3.663
--------------------------------------------------
tot         10.878  17.047  14.872  42.797



 magnetization (x)

# of ion       s       p       d       tot
------------------------------------------
    1       -0.000  -0.000   0.000  -0.000
    2       -0.000  -0.000   0.000   0.000
    3       -0.000  -0.000   0.000  -0.000
    4        0.000   0.000   0.000   0.000
    5        0.000  -0.000   0.000   0.000
    6        0.000   0.000   0.000   0.000
    7        0.000   0.000   0.000   0.000
    8        0.000  -0.000   0.000   0.000
    9        0.000  -0.000   0.000   0.000
   10        0.000  -0.000   0.000   0.000
--------------------------------------------------
tot          0.000  -0.000   0.000   0.000

 BZINTS: Fermi energy: -2.816217; 62.000000 electrons
         Band energy:-477.887708;  BLOECHL correction:  0.000000

 total amount of memory used by VASP MPI-rank0   131945. kBytes
=======================================================================

   base      :      30000. kBytes
   nonlr-proj:       9460. kBytes
   fftplans  :      11247. kBytes
   grid      :      68332. kBytes
   one-center:        311. kBytes
   wavefun   :      12595. kBytes

  
  
 General timing and accounting informations for this job:
 ========================================================
  
                  Total CPU time used (sec):    21680.184
                            User time (sec):    21163.172
                          System time (sec):      517.012
                         Elapsed time (sec):    21868.860
  
                   Maximum memory used (kb):      388952.
                   Average memory used (kb):           0.
  
                          Minor page faults:     20898527
                          Major page faults:            7
                 Voluntary context switches:         1102
