       N       E                     dE             d eps       ncg     rms          rms(c)
DAV:   1     0.398209796727E+03    0.39821E+03   -0.16341E+04   960   0.817E+02
DAV:   2     0.344074895167E+02   -0.36380E+03   -0.33506E+03  1152   0.162E+02
DAV:   3    -0.504432161357E+02   -0.84851E+02   -0.80650E+02  1424   0.801E+01
DAV:   4    -0.554989734765E+02   -0.50558E+01   -0.49636E+01  1296   0.274E+01
DAV:   5    -0.556403323354E+02   -0.14136E+00   -0.14124E+00  1328   0.438E+00    0.287E+01
DAV:   6    -0.118337457525E+03   -0.62697E+02   -0.33917E+02  1296   0.729E+01    0.626E+01
DAV:   7    -0.430184657014E+02    0.75319E+02   -0.13540E+02  1168   0.981E+01    0.176E+01
DAV:   8    -0.453033168876E+02   -0.22849E+01   -0.11864E+01  1488   0.123E+01    0.109E+01
DAV:   9    -0.465069399083E+02   -0.12036E+01   -0.62758E-01  1504   0.478E+00    0.703E+00
DAV:  10    -0.475806186122E+02   -0.10737E+01   -0.12085E+00  1552   0.790E+00    0.319E+00
DAV:  11    -0.479124062880E+02   -0.33179E+00   -0.67310E-01  1328   0.748E+00    0.386E+00
DAV:  12    -0.480083347964E+02   -0.95929E-01   -0.20220E-01  1392   0.510E+00    0.328E+00
DAV:  13    -0.482282566226E+02   -0.21992E+00   -0.62815E-02  1280   0.170E+00    0.240E+00
DAV:  14    -0.484421051723E+02   -0.21385E+00   -0.10627E-01  1216   0.207E+00    0.695E-01
DAV:  15    -0.484722003560E+02   -0.30095E-01   -0.39773E-02  1264   0.109E+00    0.461E-01
DAV:  16    -0.484736959974E+02   -0.14956E-02   -0.84095E-03  1456   0.620E-01    0.175E-01
DAV:  17    -0.484738489121E+02   -0.15291E-03   -0.11539E-03  1296   0.234E-01    0.830E-02
DAV:  18    -0.484738961995E+02   -0.47287E-04   -0.36124E-04  1072   0.199E-01
   1 F= -.48473896E+02 E0= -.48473896E+02  d E =-.484739E+02  mag=     6.0037
       N       E                     dE             d eps       ncg     rms          rms(c)
DAV:   1    -0.790640812515E+02   -0.30590E+02   -0.75970E+02  1280   0.147E+02    0.315E+01
DAV:   2    -0.609813567329E+02    0.18083E+02   -0.73557E+01  1408   0.544E+01    0.184E+01
DAV:   3    -0.612791132630E+02   -0.29776E+00   -0.87678E+01  1456   0.911E+01    0.188E+01
DAV:   4    -0.546053345122E+02    0.66738E+01   -0.29134E+01  1424   0.308E+01    0.652E+00
DAV:   5    -0.549714278288E+02   -0.36609E+00   -0.15282E+00  1360   0.671E+00    0.224E+00
DAV:   6    -0.549003835441E+02    0.71044E-01   -0.32795E-01  1472   0.451E+00    0.112E+00
DAV:   7    -0.549034557020E+02   -0.30722E-02   -0.13870E-01  1344   0.436E+00    0.904E-01
DAV:   8    -0.548958985943E+02    0.75571E-02   -0.40580E-02  1536   0.257E+00    0.387E-01
DAV:   9    -0.548954087258E+02    0.48987E-03   -0.76375E-03  1424   0.638E-01    0.196E-01
DAV:  10    -0.548961384754E+02   -0.72975E-03   -0.31730E-03  1328   0.363E-01    0.126E-01
DAV:  11    -0.548962178142E+02   -0.79339E-04   -0.12941E-03  1152   0.193E-01    0.951E-02
DAV:  12    -0.548964036088E+02   -0.18579E-03   -0.12270E-03  1040   0.139E-01    0.645E-02
DAV:  13    -0.548949880889E+02    0.14155E-02   -0.25444E-03  1152   0.151E-01    0.462E-02
DAV:  14    -0.548931375363E+02    0.18506E-02   -0.93558E-04  1168   0.926E-02    0.401E-02
DAV:  15    -0.548918385118E+02    0.12990E-02   -0.22193E-04   992   0.597E-02    0.348E-02
DAV:  16    -0.548908213194E+02    0.10172E-02   -0.77568E-05   944   0.564E-02    0.361E-02
DAV:  17    -0.548892324977E+02    0.15888E-02   -0.19755E-04   880   0.673E-02    0.294E-02
DAV:  18    -0.548889012231E+02    0.33127E-03   -0.11550E-04   928   0.523E-02    0.229E-02
DAV:  19    -0.548886950260E+02    0.20620E-03   -0.23853E-04   992   0.654E-02    0.101E-02
DAV:  20    -0.548888119287E+02   -0.11690E-03   -0.37763E-05   928   0.346E-02    0.572E-03
DAV:  21    -0.548889950189E+02   -0.18309E-03   -0.17677E-05   784   0.260E-02    0.378E-03
DAV:  22    -0.548892560636E+02   -0.26104E-03   -0.28803E-05   816   0.260E-02    0.204E-03
DAV:  23    -0.548894042163E+02   -0.14815E-03   -0.11472E-05   848   0.140E-02    0.131E-03
DAV:  24    -0.548894335559E+02   -0.29340E-04   -0.42071E-06   816   0.671E-03
   2 F= -.54889434E+02 E0= -.54889434E+02  d E =-.641554E+01  mag=     5.9993
       N       E                     dE             d eps       ncg     rms          rms(c)
DAV:   1    -0.549912682419E+02   -0.10186E+00   -0.21814E+00  1248   0.824E+00    0.152E+00
DAV:   2    -0.549366711452E+02    0.54597E-01   -0.14576E-01  1312   0.306E+00    0.780E-01
DAV:   3    -0.549288307880E+02    0.78404E-02   -0.51452E-02  1376   0.209E+00    0.576E-01
DAV:   4    -0.549224722250E+02    0.63586E-02   -0.26892E-02  1344   0.169E+00    0.154E-01
DAV:   5    -0.549217748927E+02    0.69733E-03   -0.25468E-03  1360   0.555E-01    0.674E-02
DAV:   6    -0.549216374574E+02    0.13744E-03   -0.32816E-04  1056   0.864E-02    0.290E-02
DAV:   7    -0.549216319343E+02    0.55231E-05   -0.36510E-05   784   0.469E-02
   3 F= -.54921632E+02 E0= -.54921632E+02  d E =-.644774E+01  mag=     5.9998
       N       E                     dE             d eps       ncg     rms          rms(c)
DAV:   1    -0.549710258418E+02   -0.49388E-01   -0.51951E+00   960   0.714E+00    0.478E-01
DAV:   2    -0.550027555463E+02   -0.31730E-01   -0.35418E-01  1328   0.294E+00    0.299E-01
DAV:   3    -0.550010439460E+02    0.17116E-02   -0.86235E-03  1280   0.510E-01    0.189E-01
DAV:   4    -0.550006353873E+02    0.40856E-03   -0.37894E-03  1376   0.491E-01    0.151E-01
DAV:   5    -0.550002733672E+02    0.36202E-03   -0.17534E-03  1328   0.384E-01    0.391E-02
DAV:   6    -0.550002263624E+02    0.47005E-04   -0.16211E-04   752   0.681E-02
   4 F= -.55000226E+02 E0= -.55000226E+02  d E =-.785944E-01  mag=     5.9999
       N       E                     dE             d eps       ncg     rms          rms(c)
DAV:   1    -0.550020847036E+02   -0.18113E-02   -0.30152E+00   960   0.546E+00    0.373E-01
DAV:   2    -0.550206257645E+02   -0.18541E-01   -0.20769E-01  1296   0.223E+00    0.228E-01
DAV:   3    -0.550196070138E+02    0.10188E-02   -0.56539E-03  1184   0.401E-01    0.144E-01
DAV:   4    -0.550193197712E+02    0.28724E-03   -0.22822E-03  1440   0.379E-01    0.115E-01
DAV:   5    -0.550191060841E+02    0.21369E-03   -0.10014E-03  1360   0.294E-01    0.306E-02
DAV:   6    -0.550190562806E+02    0.49803E-04   -0.90178E-05   688   0.521E-02
   5 F= -.55019056E+02 E0= -.55019056E+02  d E =-.974243E-01  mag=     6.0000
       N       E                     dE             d eps       ncg     rms          rms(c)
DAV:   1    -0.550302911149E+02   -0.11185E-01   -0.15300E+00   960   0.475E+00    0.620E-01
DAV:   2    -0.550318865636E+02   -0.15954E-02   -0.11808E-01  1232   0.144E+00    0.326E-01
DAV:   3    -0.550300503529E+02    0.18362E-02   -0.87568E-03  1392   0.586E-01    0.216E-01
DAV:   4    -0.550291838501E+02    0.86650E-03   -0.39323E-03  1456   0.638E-01    0.121E-01
DAV:   5    -0.550287916830E+02    0.39217E-03   -0.12228E-03  1392   0.354E-01    0.403E-02
DAV:   6    -0.550288103304E+02   -0.18647E-04   -0.12469E-04   896   0.923E-02
   6 F= -.55028810E+02 E0= -.55028810E+02  d E =-.975405E-02  mag=     6.0000
       N       E                     dE             d eps       ncg     rms          rms(c)
DAV:   1    -0.550301523773E+02   -0.13607E-02   -0.95531E-02  1024   0.117E+00    0.157E-01
DAV:   2    -0.550303203683E+02   -0.16799E-03   -0.72873E-03  1136   0.367E-01    0.833E-02
DAV:   3    -0.550302994077E+02    0.20961E-04   -0.55182E-04  1216   0.166E-01
   7 F= -.55030299E+02 E0= -.55030299E+02  d E =-.112431E-01  mag=     6.0000
       N       E                     dE             d eps       ncg     rms          rms(c)
DAV:   1    -0.550361361260E+02   -0.58158E-02   -0.42074E-01  1312   0.293E+00    0.489E-01
DAV:   2    -0.550313106875E+02    0.48254E-02   -0.29527E-02  1200   0.106E+00    0.250E-01
DAV:   3    -0.550303342217E+02    0.97647E-03   -0.56487E-03  1360   0.691E-01    0.189E-01
DAV:   4    -0.550294190932E+02    0.91513E-03   -0.29063E-03  1440   0.537E-01    0.515E-02
DAV:   5    -0.550293650722E+02    0.54021E-04   -0.32189E-04   896   0.191E-01
   8 F= -.55029365E+02 E0= -.55029365E+02  d E =0.934336E-03  mag=     6.0000
       N       E                     dE             d eps       ncg     rms          rms(c)
DAV:   1    -0.550334472419E+02   -0.40281E-02   -0.18156E-01  1216   0.200E+00    0.320E-01
DAV:   2    -0.550319007893E+02    0.15465E-02   -0.12226E-02  1184   0.758E-01    0.170E-01
DAV:   3    -0.550316551900E+02    0.24560E-03   -0.26129E-03  1344   0.495E-01    0.126E-01
DAV:   4    -0.550314769658E+02    0.17822E-03   -0.12992E-03  1424   0.355E-01    0.308E-02
DAV:   5    -0.550314712813E+02    0.56845E-05   -0.12413E-04   912   0.115E-01
   9 F= -.55031471E+02 E0= -.55031471E+02  d E =-.117187E-02  mag=     6.0000
