 vasp.5.4.4.18Apr17-6-g9f103f2a35 (build May  1 2020 15:48:39) complex           
 executed on             LinuxGNU date 2020.06.17  12:39:13
 running on   16 total cores
 distrk:  each k-point on   16 cores,    1 groups
 distr:  one band on NCORES_PER_BAND=   1 cores,   16 groups


--------------------------------------------------------------------------------------------------------


 INCAR:
 POTCAR:   PAW_PBE Cr 06Sep2000                   
 POTCAR:   PAW_PBE Si 05Jan2001                   
 POTCAR:   PAW_PBE Ge 05Jan2001                   
 POTCAR:    PAW_PBE S 17Jan2003                   

 ----------------------------------------------------------------------------- 
|                                                                             |
|           W    W    AA    RRRRR   N    N  II  N    N   GGGG   !!!           |
|           W    W   A  A   R    R  NN   N  II  NN   N  G    G  !!!           |
|           W    W  A    A  R    R  N N  N  II  N N  N  G       !!!           |
|           W WW W  AAAAAA  RRRRR   N  N N  II  N  N N  G  GGG   !            |
|           WW  WW  A    A  R   R   N   NN  II  N   NN  G    G                |
|           W    W  A    A  R    R  N    N  II  N    N   GGGG   !!!           |
|                                                                             |
|      For optimal performance we recommend to set                            |
|        NCORE= 4 - approx SQRT( number of cores)                             |
|      NCORE specifies how many cores store one orbital (NPAR=cpu/NCORE).     |
|      This setting can  greatly improve the performance of VASP for DFT.     |
|      The default,   NCORE=1            might be grossly inefficient         |
|      on modern multi-core architectures or massively parallel machines.     |
|      Do your own testing !!!!                                               |
|      Unfortunately you need to use the default for GW and RPA calculations. |
|      (for HF NCORE is supported but not extensively tested yet)             |
|                                                                             |
 ----------------------------------------------------------------------------- 


 ----------------------------------------------------------------------------- 
|                                                                             |
|  ADVICE TO THIS USER RUNNING 'VASP/VAMP'   (HEAR YOUR MASTER'S VOICE ...):  |
|                                                                             |
|      You have switched on vdW-DFT.                                          |
|      This routine was written and supplied by Jiri Klimes.                  |
|      We recommed that you carefully read and cite the following             |
|      publication                                                            |
|      J. Klimes, D.R. Bowler, A. Michelides                                  |
|        J. Phys.: Cond Matt. 22 022201 (2010)                                |
|      J. Klimes, D.R. Bowler, A. Michelides                                  |
|        Phys. Rev. B. 83, 195131 (2011)                                      |
|      and references therein.                                                |
|                                                                             |
 ----------------------------------------------------------------------------- 

 POTCAR:   PAW_PBE Cr 06Sep2000                   
   VRHFIN =Cr : d5 s1                                                           
   LEXCH  = PE                                                                  
   EATOM  =   276.9744 eV,   20.3570 Ry                                         
                                                                                
   TITEL  = PAW_PBE Cr 06Sep2000                                                
   LULTRA =        F    use ultrasoft PP ?                                      
   IUNSCR =        1    unscreen: 0-lin 1-nonlin 2-no                           
   RPACOR =    2.080    partial core radius                                     
   POMASS =   51.996; ZVAL   =    6.000    mass and valenz                      
   RCORE  =    2.500    outmost cutoff radius                                   
   RWIGS  =    2.500; RWIGS  =    1.323    wigner-seitz radius (au A)           
   ENMAX  =  227.082; ENMIN  =  170.311 eV                                      
   RCLOC  =    1.721    cutoff for local pot                                    
   LCOR   =        T    correct aug charges                                     
   LPAW   =        T    paw PP                                                  
   EAUG   =  402.108                                                            
   DEXC   =    -.035                                                            
   RMAX   =    3.060    core radius for proj-oper                               
   RAUG   =    1.300    factor for augmentation sphere                          
   RDEP   =    2.609    radius for radial grids                                 
   QCUT   =   -4.085; QGAM   =    8.171    optimization parameters              
                                                                                
   Description                                                                  
     l     E      TYP  RCUT    TYP  RCUT                                        
     2   .000     23  2.500                                                     
     2   .000     23  2.500                                                     
     0   .000     23  2.500                                                     
     0   .000     23  2.500                                                     
     1  -.400     23  2.500                                                     
     1  2.000     23  2.500                                                     
     3   .000      7   .000                                                     
  local pseudopotential read in
  partial core-charges read in
  atomic valenz-charges read in
  non local Contribution for L=           2  read in
    real space projection operators read in
  non local Contribution for L=           2  read in
    real space projection operators read in
  non local Contribution for L=           0  read in
    real space projection operators read in
  non local Contribution for L=           0  read in
    real space projection operators read in
  non local Contribution for L=           1  read in
    real space projection operators read in
  non local Contribution for L=           1  read in
    real space projection operators read in
    PAW grid and wavefunctions read in

   number of l-projection  operators is LMAX  =           6
   number of lm-projection operators is LMMAX =          18

 POTCAR:   PAW_PBE Si 05Jan2001                   
   VRHFIN =Si: s2p2                                                             
   LEXCH  = PE                                                                  
   EATOM  =   103.0669 eV,    7.5752 Ry                                         
                                                                                
   TITEL  = PAW_PBE Si 05Jan2001                                                
   LULTRA =        F    use ultrasoft PP ?                                      
   IUNSCR =        1    unscreen: 0-lin 1-nonlin 2-no                           
   RPACOR =    1.500    partial core radius                                     
   POMASS =   28.085; ZVAL   =    4.000    mass and valenz                      
   RCORE  =    1.900    outmost cutoff radius                                   
   RWIGS  =    2.480; RWIGS  =    1.312    wigner-seitz radius (au A)           
   ENMAX  =  245.345; ENMIN  =  184.009 eV                                      
   ICORE  =        2    local potential                                         
   LCOR   =        T    correct aug charges                                     
   LPAW   =        T    paw PP                                                  
   EAUG   =  322.069                                                            
   DEXC   =    -.007                                                            
   RMAX   =    2.944    core radius for proj-oper                               
   RAUG   =    1.300    factor for augmentation sphere                          
   RDEP   =    1.993    radius for radial grids                                 
   QCUT   =   -4.246; QGAM   =    8.493    optimization parameters              
                                                                                
   Description                                                                  
     l     E      TYP  RCUT    TYP  RCUT                                        
     0   .000     23  1.900                                                     
     0   .000     23  1.900                                                     
     1   .000     23  1.900                                                     
     1   .000     23  1.900                                                     
     2   .000      7  1.900                                                     
  local pseudopotential read in
  partial core-charges read in
  atomic valenz-charges read in
  non local Contribution for L=           0  read in
    real space projection operators read in
  non local Contribution for L=           0  read in
    real space projection operators read in
  non local Contribution for L=           1  read in
    real space projection operators read in
  non local Contribution for L=           1  read in
    real space projection operators read in
    PAW grid and wavefunctions read in

   number of l-projection  operators is LMAX  =           4
   number of lm-projection operators is LMMAX =           8

 POTCAR:   PAW_PBE Ge 05Jan2001                   
   VRHFIN =Ge: s2p2                                                             
   LEXCH  = PE                                                                  
   EATOM  =   104.9960 eV,    7.7170 Ry                                         
                                                                                
   TITEL  = PAW_PBE Ge 05Jan2001                                                
   LULTRA =        F    use ultrasoft PP ?                                      
   IUNSCR =        1    unscreen: 0-lin 1-nonlin 2-no                           
   RPACOR =    2.170    partial core radius                                     
   POMASS =   72.610; ZVAL   =    4.000    mass and valenz                      
   RCORE  =    2.300    outmost cutoff radius                                   
   RWIGS  =    2.300; RWIGS  =    1.217    wigner-seitz radius (au A)           
   ENMAX  =  173.807; ENMIN  =  130.355 eV                                      
   ICORE  =        3    local potential                                         
   LCOR   =        T    correct aug charges                                     
   LPAW   =        T    paw PP                                                  
   EAUG   =  385.843                                                            
   DEXC   =    -.138                                                            
   RMAX   =    3.497    core radius for proj-oper                               
   RAUG   =    1.300    factor for augmentation sphere                          
   RDEP   =    2.318    radius for radial grids                                 
   QCUT   =   -3.574; QGAM   =    7.148    optimization parameters              
                                                                                
   Description                                                                  
     l     E      TYP  RCUT    TYP  RCUT                                        
     0   .000     23  2.300                                                     
     0   .000     23  2.300                                                     
     1   .000     23  2.300                                                     
     1   .000     23  2.300                                                     
     2   .000     23  2.300                                                     
     3  -.100      7  2.300                                                     
  local pseudopotential read in
  partial core-charges read in
  atomic valenz-charges read in
  non local Contribution for L=           0  read in
    real space projection operators read in
  non local Contribution for L=           0  read in
    real space projection operators read in
  non local Contribution for L=           1  read in
    real space projection operators read in
  non local Contribution for L=           1  read in
    real space projection operators read in
  non local Contribution for L=           2  read in
    real space projection operators read in
    PAW grid and wavefunctions read in

   number of l-projection  operators is LMAX  =           5
   number of lm-projection operators is LMMAX =          13

 POTCAR:    PAW_PBE S 17Jan2003                   
   VRHFIN =S : s2p4                                                             
   LEXCH  = PE                                                                  
   EATOM  =   276.8230 eV,   20.3459 Ry                                         
                                                                                
   TITEL  = PAW_PBE S 17Jan2003                                                 
   LULTRA =        F    use ultrasoft PP ?                                      
   IUNSCR =        1    unscreen: 0-lin 1-nonlin 2-no                           
   RPACOR =    1.500    partial core radius                                     
   POMASS =   32.066; ZVAL   =    6.000    mass and valenz                      
   RCORE  =    1.900    outmost cutoff radius                                   
   RWIGS  =    2.200; RWIGS  =    1.164    wigner-seitz radius (au A)           
   ENMAX  =  280.000; ENMIN  =  194.016 eV                                      
   ICORE  =        2    local potential                                         
   LCOR   =        T    correct aug charges                                     
   LPAW   =        T    paw PP                                                  
   EAUG   =  335.092                                                            
   DEXC   =     .000                                                            
   RMAX   =    2.867    core radius for proj-oper                               
   RAUG   =    1.300    factor for augmentation sphere                          
   RDEP   =    1.954    radius for radial grids                                 
   QCUT   =   -4.360; QGAM   =    8.721    optimization parameters              
                                                                                
   Description                                                                  
     l     E      TYP  RCUT    TYP  RCUT                                        
     0   .000     23  1.900                                                     
     0   .000     23  1.900                                                     
     1   .000     23  1.900                                                     
     1   .000     23  1.900                                                     
     2   .000     23  1.900                                                     
  local pseudopotential read in
  partial core-charges read in
  atomic valenz-charges read in
  non local Contribution for L=           0  read in
    real space projection operators read in
  non local Contribution for L=           0  read in
    real space projection operators read in
  non local Contribution for L=           1  read in
    real space projection operators read in
  non local Contribution for L=           1  read in
    real space projection operators read in
    PAW grid and wavefunctions read in

   number of l-projection  operators is LMAX  =           4
   number of lm-projection operators is LMMAX =           8

 Optimization of the real space projectors (new method)

 maximal supplied QI-value         = 15.12
 optimisation between [QCUT,QGAM] = [ 11.64, 23.28] = [ 37.95,151.78] Ry 
 Optimized for a Real-space Cutoff    1.49 Angstroem

   l    n(q)    QCUT    max X(q) W(low)/X(q) W(high)/X(q)  e(spline) 
   2      9    11.641     4.777    0.25E-04    0.21E-05    0.63E-07
   2      9    11.641    31.132    0.13E-03    0.22E-03    0.64E-06
   0     10    11.641    20.416    0.11E-04    0.74E-05    0.19E-07
   0     10    11.641    45.408    0.10E-03    0.85E-04    0.30E-06
   1     10    11.641     7.848    0.22E-04    0.23E-04    0.56E-07
   1     10    11.641     9.895    0.85E-04    0.54E-04    0.16E-06
 Optimization of the real space projectors (new method)

 maximal supplied QI-value         = 19.84
 optimisation between [QCUT,QGAM] = [ 11.51, 23.22] = [ 37.09,150.92] Ry 
 Optimized for a Real-space Cutoff    1.21 Angstroem

   l    n(q)    QCUT    max X(q) W(low)/X(q) W(high)/X(q)  e(spline) 
   0      8    11.508     8.708    0.18E-04    0.44E-05    0.47E-08
   0      8    11.508   106.241    0.70E-04    0.15E-03    0.51E-07
   1      8    11.508     5.901    0.63E-05    0.23E-04    0.21E-07
   1      8    11.508    73.241    0.15E-03    0.36E-04    0.79E-07
 Optimization of the real space projectors (new method)

 maximal supplied QI-value         = 16.25
 optimisation between [QCUT,QGAM] = [ 11.54, 23.24] = [ 37.28,151.24] Ry 
 Optimized for a Real-space Cutoff    1.28 Angstroem

   l    n(q)    QCUT    max X(q) W(low)/X(q) W(high)/X(q)  e(spline) 
   0      9    11.539     8.651    0.22E-04    0.16E-04    0.10E-07
   0      9    11.539    33.192    0.11E-03    0.16E-03    0.65E-07
   1      8    11.539     5.899    0.37E-04    0.28E-04    0.43E-07
   1      8    11.539    27.289    0.22E-03    0.28E-04    0.14E-06
   2      8    11.539     4.673    0.11E-03    0.18E-03    0.58E-07
 Optimization of the real space projectors (new method)

 maximal supplied QI-value         = 19.84
 optimisation between [QCUT,QGAM] = [ 11.51, 23.22] = [ 37.09,150.92] Ry 
 Optimized for a Real-space Cutoff    1.21 Angstroem

   l    n(q)    QCUT    max X(q) W(low)/X(q) W(high)/X(q)  e(spline) 
   0      8    11.508     5.487    0.18E-04    0.22E-05    0.47E-08
   0      8    11.508    85.627    0.96E-04    0.18E-03    0.54E-07
   1      8    11.508     3.530    0.17E-04    0.28E-04    0.21E-07
   1      8    11.508    42.714    0.18E-03    0.63E-04    0.92E-07

 ----------------------------------------------------------------------------- 
|                                                                             |
|  ADVICE TO THIS USER RUNNING 'VASP/VAMP'   (HEAR YOUR MASTER'S VOICE ...):  |
|                                                                             |
|      You enforced a specific xc-type in the INCAR file,                     |
|      a different type was found on the POTCAR file                          |
|          I HOPE YOU KNOW, WHAT YOU ARE  DOING                               |
|                                                                             |
 ----------------------------------------------------------------------------- 

 PAW_PBE Cr 06Sep2000                   :
 energy of atom  1       EATOM= -276.9744
 kinetic energy error for atom=    0.0010 (will be added to EATOM!!)
 PAW_PBE Si 05Jan2001                   :
 energy of atom  2       EATOM= -103.0669
 kinetic energy error for atom=    0.0005 (will be added to EATOM!!)
 PAW_PBE Ge 05Jan2001                   :
 energy of atom  3       EATOM= -104.9960
 kinetic energy error for atom=    0.0002 (will be added to EATOM!!)
  PAW_PBE S 17Jan2003                   :
 energy of atom  4       EATOM= -276.8230
 kinetic energy error for atom=    0.0016 (will be added to EATOM!!)


 POSCAR: Cr2 Si Ge S6                            
  positions in direct lattice
  velocities in cartesian coordinates
  No initial velocities read in
 exchange correlation table for  LEXCH =       42
   RHO(1)=    0.500       N(1)  =     2000
   RHO(2)=  100.500       N(2)  =     4000



--------------------------------------------------------------------------------------------------------


 ion  position               nearest neighbor table
   1  0.333  0.333  0.500-   6 2.78   5 2.78   7 2.78   8 2.78  10 2.78   9 2.78
   2  0.667  0.667  0.500-   9 2.78   8 2.78  10 2.78   5 2.78   7 2.78   6 2.78
   3  0.000  0.000  0.448-   4 2.43   8 2.63  10 2.63   9 2.63
   4  0.000  0.000  0.552-   3 2.43   5 2.63   7 2.63   6 2.63
   5  0.626  0.000  0.574-   4 2.63   1 2.78   2 2.78
   6  0.000  0.373  0.574-   4 2.63   1 2.78   2 2.78
   7  0.373  0.626  0.574-   4 2.63   1 2.78   2 2.78
   8  0.374  1.000  0.426-   3 2.63   2 2.78   1 2.78
   9  1.000  0.627  0.426-   3 2.63   2 2.78   1 2.78
  10  0.627  0.374  0.426-   3 2.63   2 2.78   1 2.78

  LATTYP: Found a hexagonal cell.
 ALAT       =     6.9077769333
 C/A-ratio  =     3.3939410937
  
  Lattice vectors:
  
 A1 = (   3.4538890000,  -5.9823100000,   0.0000000000)
 A2 = (  -6.9077770000,   0.0000000000,   0.0000000000)
 A3 = (   0.0000000000,   0.0000000000, -23.4445880000)


Analysis of symmetry for initial positions (statically):
=====================================================================
 Subroutine PRICEL returns:
 Original cell was already a primitive cell.
 

 Routine SETGRP: Setting up the symmetry group for a 
 hexagonal supercell.


 Subroutine GETGRP returns: Found  3 space group operations
 (whereof  3 operations were pure point group operations)
 out of a pool of 24 trial point group operations.


The static configuration has the point symmetry C_3 .


Analysis of symmetry for dynamics (positions and initial velocities):
=====================================================================
 Subroutine PRICEL returns:
 Original cell was already a primitive cell.
 

 Routine SETGRP: Setting up the symmetry group for a 
 hexagonal supercell.


 Subroutine GETGRP returns: Found  3 space group operations
 (whereof  3 operations were pure point group operations)
 out of a pool of 24 trial point group operations.


The dynamic configuration has the point symmetry C_3 .


Analysis of constrained symmetry for selective dynamics:
=====================================================================
 Subroutine PRICEL returns:
 Original cell was already a primitive cell.
 

 Routine SETGRP: Setting up the symmetry group for a 
 hexagonal supercell.


 Subroutine GETGRP returns: Found  3 space group operations
 (whereof  3 operations were pure point group operations)
 out of a pool of 24 trial point group operations.


The constrained configuration has the point symmetry C_3 .


Analysis of structural, dynamic, and magnetic symmetry:
=====================================================================
 Subroutine PRICEL returns:
 Original cell was already a primitive cell.
 

 Routine SETGRP: Setting up the symmetry group for a 
 hexagonal supercell.


 Subroutine GETGRP returns: Found  3 space group operations
 (whereof  3 operations were pure point group operations)
 out of a pool of 24 trial point group operations.


The magnetic configuration has the point symmetry C_3 .


 Subroutine INISYM returns: Found  3 space group operations
 (whereof  3 operations are pure point group operations),
 and found     1 'primitive' translations



 KPOINTS: Kpoints from vasprun.xml                

Automatic generation of k-mesh.
Space group operators:
 irot       det(A)        alpha          n_x          n_y          n_z        tau_x        tau_y        tau_z
    1     1.000000     0.000000     1.000000     0.000000     0.000000     0.000000     0.000000     0.000000
    2     1.000000   120.000000     0.000000     0.000000     1.000000     0.000000     0.000000     0.000000
    3     1.000000   120.000000     0.000000     0.000000    -1.000000     0.000000     0.000000     0.000000
 
 Subroutine IBZKPT returns following result:
 ===========================================
 
 Found      5 irreducible k-points:
 
 Following reciprocal coordinates:
            Coordinates               Weight
  0.000000  0.000000  0.000000      1.000000
  0.200000  0.000000  0.000000      6.000000
  0.400000  0.000000  0.000000      6.000000
  0.400000  0.200000  0.000000      6.000000
 -0.400000  0.200000  0.000000      6.000000
 
 Following cartesian coordinates:
            Coordinates               Weight
  0.000000  0.000000  0.000000      1.000000
  0.028953 -0.016716  0.000000      6.000000
  0.057906 -0.033432  0.000000      6.000000
  0.057906  0.000000  0.000000      6.000000
 -0.057906  0.066864  0.000000      6.000000
 
 TETIRR: Found     15 inequivalent tetrahedra from      150


--------------------------------------------------------------------------------------------------------




 Dimension of arrays:
   k-points           NKPTS =      5   k-points in BZ     NKDIM =      5   number of bands    NBANDS=     48
   number of dos      NEDOS =    301   number of ions     NIONS =     10
   non local maximal  LDIM  =      6   non local SUM 2l+1 LMDIM =     18
   total plane-waves  NPLWV = 524880
   max r-space proj   IRMAX =   7543   max aug-charges    IRDMAX=  29641
   dimension x,y,z NGX =    54 NGY =   54 NGZ =  180
   dimension x,y,z NGXF=   108 NGYF=  108 NGZF=  360
   support grid    NGXF=   108 NGYF=  108 NGZF=  360
   ions per type =               2   1   1   6
   NGX,Y,Z   is equivalent  to a cutoff of  13.00, 13.00, 12.76 a.u.
   NGXF,Y,Z  is equivalent  to a cutoff of  25.99, 25.99, 25.53 a.u.

 SYSTEM =  unknown system                          
 POSCAR =  Cr2 Si Ge S6                            

 Startparameter for this run:
   NWRITE =      2    write-flag & timer
   PREC   = accura    normal or accurate (medium, high low for compatibility)
   ISTART =      0    job   : 0-new  1-cont  2-samecut
   ICHARG =      2    charge: 1-file 2-atom 10-const
   ISPIN  =      2    spin polarized calculation?
   LNONCOLLINEAR =      F non collinear calculations
   LSORBIT =      F    spin-orbit coupling
   INIWAV =      1    electr: 0-lowe 1-rand  2-diag
   LASPH  =      F    aspherical Exc in radial PAW
   METAGGA=      F    non-selfconsistent MetaGGA calc.

 Electronic Relaxation 1
   ENCUT  =  520.0 eV  38.22 Ry    6.18 a.u.  12.84 12.84 43.59*2*pi/ulx,y,z
   ENINI  =  520.0     initial cutoff
   ENAUG  =  402.1 eV  augmentation charge cutoff
   NELM   =    400;   NELMIN=  2; NELMDL=  0     # of ELM steps 
   EDIFF  = 0.1E-03   stopping-criterion for ELM
   LREAL  =      T    real-space projection
   NLSPLINE    = F    spline interpolate recip. space projectors
   LCOMPAT=      F    compatible to vasp.4.4
   GGA_COMPAT  = T    GGA compatible to vasp.4.4-vasp.4.6
   LMAXPAW     = -100 max onsite density
   LMAXMIX     =    2 max onsite mixed and CHGCAR
   VOSKOWN=      0    Vosko Wilk Nusair interpolation
   ROPT   =   -0.00025  -0.00025  -0.00025  -0.00025
 Ionic relaxation
   EDIFFG = 0.1E-02   stopping-criterion for IOM
   NSW    =     99    number of steps for IOM
   NBLOCK =      1;   KBLOCK =     99    inner block; outer block 
   IBRION =      2    ionic relax: 0-MD 1-quasi-New 2-CG
   NFREE  =      1    steps in history (QN), initial steepest desc. (CG)
   ISIF   =      3    stress and relaxation
   IWAVPR =     11    prediction:  0-non 1-charg 2-wave 3-comb
   ISYM   =      2    0-nonsym 1-usesym 2-fastsym
   LCORR  =      T    Harris-Foulkes like correction to forces

   POTIM  = 0.5000    time-step for ionic-motion
   TEIN   =    0.0    initial temperature
   TEBEG  =    0.0;   TEEND  =   0.0 temperature during run
   SMASS  =  -3.00    Nose mass-parameter (am)
   estimated Nose-frequenzy (Omega)   =  0.10E-29 period in steps =****** mass=  -0.109E-26a.u.
   SCALEE = 1.0000    scale energy and forces
   NPACO  =    256;   APACO  = 16.0  distance and # of slots for P.C.
   PSTRESS=    0.0 pullay stress

  Mass of Ions in am
   POMASS =  52.00 28.09 72.61 32.07
  Ionic Valenz
   ZVAL   =   6.00  4.00  4.00  6.00
  Atomic Wigner-Seitz radii
   RWIGS  =  -1.00 -1.00 -1.00 -1.00
  virtual crystal weights 
   VCA    =   1.00  1.00  1.00  1.00
   NELECT =      56.0000    total number of electrons
   NUPDOWN=      -1.0000    fix difference up-down

 DOS related values:
   EMIN   =  10.00;   EMAX   =-10.00  energy-range for DOS
   EFERMI =   0.00
   ISMEAR =    -5;   SIGMA  =   0.05  broadening in eV -4-tet -1-fermi 0-gaus

 Electronic relaxation 2 (details)
   IALGO  =     38    algorithm
   LDIAG  =      T    sub-space diagonalisation (order eigenvalues)
   LSUBROT=      F    optimize rotation matrix (better conditioning)
   TURBO    =      0    0=normal 1=particle mesh
   IRESTART =      0    0=no restart 2=restart with 2 vectors
   NREBOOT  =      0    no. of reboots
   NMIN     =      0    reboot dimension
   EREF     =   0.00    reference energy to select bands
   IMIX   =      4    mixing-type and parameters
     AMIX     =   0.40;   BMIX     =  1.00
     AMIX_MAG =   1.60;   BMIX_MAG =  1.00
     AMIN     =   0.01
     WC   =   100.;   INIMIX=   1;  MIXPRE=   1;  MAXMIX= -45

 Intra band minimization:
   WEIMIN = 0.0010     energy-eigenvalue tresh-hold
   EBREAK =  0.52E-06  absolut break condition
   DEPER  =   0.30     relativ break condition  

   TIME   =   0.40     timestep for ELM

  volume/ion in A,a.u.               =      96.88       653.80
  Fermi-wavevector in a.u.,A,eV,Ry     =   0.632976  1.196152  5.451299  0.400659
  Thomas-Fermi vector in A             =   1.696476

 Write flags
   LWAVE        =      F    write WAVECAR
   LDOWNSAMPLE  =      F    k-point downsampling of WAVECAR
   LCHARG       =      T    write CHGCAR
   LVTOT        =      F    write LOCPOT, total local potential
   LVHAR        =      F    write LOCPOT, Hartree potential only
   LELF         =      F    write electronic localiz. function (ELF)
   LORBIT       =     11    0 simple, 1 ext, 2 COOP (PROOUT), +10 PAW based schemes


 Dipole corrections
   LMONO  =      F    monopole corrections only (constant potential shift)
   LDIPOL =      F    correct potential (dipole corrections)
   IDIPOL =      0    1-x, 2-y, 3-z, 4-all directions 
   EPSILON=  1.0000000 bulk dielectric constant

 Exchange correlation treatment:
   GGA     =    BO    GGA type
   LEXCH   =    42    internal setting for exchange type
   VOSKOWN=      0    Vosko Wilk Nusair interpolation
   LHFCALC =     F    Hartree Fock is set to
   LHFONE  =     F    Hartree Fock one center treatment
   AEXX    =    0.0000 exact exchange contribution

 vdW DFT:
   LUSE_VDW   =     T    switch on vdW DFT
   Zab_VDW    =-.8491    correlation parameter
   PARAM1     =0.1833
   PARAM2     =0.2200
   PARAM3     =0.0000
   -- rVV10 --
   BPARAM     = 6.3000
   CPARAM     = 0.0093

 Linear response parameters
   LEPSILON=     F    determine dielectric tensor
   LRPA    =     F    only Hartree local field effects (RPA)
   LNABLA  =     F    use nabla operator in PAW spheres
   LVEL    =     F    velocity operator in full k-point grid
   LINTERFAST=   F  fast interpolation
   KINTER  =     0    interpolate to denser k-point grid
   CSHIFT  =0.1000    complex shift for real part using Kramers Kronig
   OMEGAMAX=  -1.0    maximum frequency
   DEG_THRESHOLD= 0.2000000E-02 threshold for treating states as degnerate
   RTIME   =   -0.100 relaxation time in fs
  (WPLASMAI=    0.000 imaginary part of plasma frequency in eV, 0.658/RTIME)
   DFIELD  = 0.0000000 0.0000000 0.0000000 field for delta impulse in time

 Orbital magnetization related:
   ORBITALMAG=     F  switch on orbital magnetization
   LCHIMAG   =     F  perturbation theory with respect to B field
   DQ        =  0.001000  dq finite difference perturbation B field
   LLRAUG    =     F  two centre corrections for induced B field



--------------------------------------------------------------------------------------------------------


 conjugate gradient relaxation of ions
   using selective dynamics as specified on POSCAR
 charge density and potential will be updated during run
 spin polarized calculation
 Variant of blocked Davidson
 Davidson routine will perform the subspace rotation
 perform sub-space diagonalisation
    after iterative eigenvector-optimisation
 modified Broyden-mixing scheme, WC =      100.0
 initial mixing is a Kerker type mixing with AMIX =  0.4000 and BMIX =      1.0000
 Hartree-type preconditioning will be used
 using additional bands           20
 real space projection scheme for non local part
 use partial core corrections
 calculate Harris-corrections to forces   (improved forces if not selfconsistent)
 use gradient corrections 
 use of overlap-Matrix (Vanderbilt PP)
 Fermi weights with tetrahedron method with Bloechl corrections


--------------------------------------------------------------------------------------------------------


  energy-cutoff  :      520.00
  volume of cell :      968.84
      direct lattice vectors                 reciprocal lattice vectors
     6.907777000 -0.000000000  0.000000000     0.144764372 -0.083579742  0.000000000
     3.453888000  5.982310000  0.000000000     0.000000000  0.167159509 -0.000000000
     0.000000000  0.000000000 23.444588000    -0.000000000  0.000000000  0.042653767

  length of vectors
     6.907777000  6.907776433 23.444588000     0.167159495  0.167159509  0.042653767



 k-points in units of 2pi/SCALE and weight: Kpoints from vasprun.xml                
   0.00000000  0.00000000  0.00000000       0.040
   0.02895287 -0.01671595  0.00000000       0.240
   0.05790575 -0.03343190  0.00000000       0.240
   0.05790575  0.00000000  0.00000000       0.240
  -0.05790575  0.06686380  0.00000000       0.240

 k-points in reciprocal lattice and weights: Kpoints from vasprun.xml                
   0.00000000  0.00000000  0.00000000       0.040
   0.20000000  0.00000000  0.00000000       0.240
   0.40000000  0.00000000  0.00000000       0.240
   0.40000000  0.20000000  0.00000000       0.240
  -0.40000000  0.20000000  0.00000000       0.240

 position of ions in fractional coordinates (direct lattice) 
   0.33333300  0.33333300  0.49992500
   0.66666700  0.66666700  0.50007500
   0.00000000  0.00000000  0.44821600
   0.00000000  0.00000000  0.55178400
   0.62635700  0.00042000  0.57375200
   0.00042000  0.37322400  0.57375200
   0.37322400  0.62635700  0.57375200
   0.37364300  0.99958000  0.42624800
   0.99958000  0.62677600  0.42624800
   0.62677600  0.37364300  0.42624800

 position of ions in cartesian coordinates  (Angst):
   3.45388488  1.99410134 11.72053566
   6.90778012  3.98820866 11.72405234
   0.00000000  0.00000000 10.50823946
   0.00000000  0.00000000 12.93634854
   4.32818511  0.00251257 13.45137925
   1.29197516  2.23274167 13.45137925
   4.74151509  3.74706174 13.45137925
   6.03347989  5.97979743  9.99320875
   9.06968984  3.74956833  9.99320875
   5.62014991  2.23524826  9.99320875



--------------------------------------------------------------------------------------------------------


 k-point  1 :   0.0000 0.0000 0.0000  plane waves:   26073
 k-point  2 :   0.2000 0.0000 0.0000  plane waves:   26070
 k-point  3 :   0.4000 0.0000 0.0000  plane waves:   26086
 k-point  4 :   0.4000 0.2000 0.0000  plane waves:   26085
 k-point  5 :  -0.4000 0.2000 0.0000  plane waves:   26115

 maximum and minimum number of plane-waves per node :     26115    26070

 maximum number of plane-waves:     26115
 maximum index in each direction: 
   IXMAX=   13   IYMAX=   12   IZMAX=   43
   IXMIN=  -13   IYMIN=  -13   IZMIN=  -43


 serial   3D FFT for wavefunctions
 parallel 3D FFT for charge:
    minimum data exchange during FFTs selected (reduces bandwidth)


 total amount of memory used by VASP MPI-rank0   128521. kBytes
=======================================================================

   base      :      30000. kBytes
   nonlr-proj:       6036. kBytes
   fftplans  :      11247. kBytes
   grid      :      68332. kBytes
   one-center:        311. kBytes
   wavefun   :      12595. kBytes

     INWAV:  cpu time    0.0000: real time    0.0004
 Broyden mixing: mesh for mixing (old mesh)
   NGX = 25   NGY = 25   NGZ = 87
  (NGX  =108   NGY  =108   NGZ  =360)
  gives a total of  54375 points

 initial charge density was supplied:
 charge density of overlapping atoms calculated
 number of electron      56.0000000 magnetization      14.8000000
 keeping initial charge density in first step


--------------------------------------------------------------------------------------------------------


 Maximum index for non-local projection operator         7247
 Maximum index for augmentation-charges         2133 (set IRDMAX)


--------------------------------------------------------------------------------------------------------


 First call to EWALD:  gamma=   0.179
 Maximum number of real-space cells 4x 4x 1
 Maximum number of reciprocal cells 2x 2x 6

    FEWALD:  cpu time    0.0000: real time    0.0015


--------------------------------------- Iteration      1(   1)  ---------------------------------------


vdW kernel read from vdw_kernel.bindat
  0.0000  0.2424  0.5071  0.7962  1.1119  1.4567  1.8333  2.2446  2.6937  3.1842
  3.7199  4.3049  4.9438  5.6415  6.4036  7.2358  8.1446  9.1372 10.2212 11.4050
 12.6979 14.1099 15.6519 17.3360 19.1751 21.1837 23.3773 25.7729 28.3892 31.2465
 34.3669 37.7748 41.4965 45.5611 50.0000

    POTLOK:  cpu time   52.4480: real time   52.6221
    SETDIJ:  cpu time    0.0440: real time    0.0440
     EDDAV:  cpu time   21.6640: real time   22.5344
 BZINTS: Fermi energy:  5.429944; 56.000000 electrons
         Band energy: -23.422252;  BLOECHL correction: -0.030103
       DOS:  cpu time    0.0040: real time    0.0049
    --------------------------------------------
      LOOP:  cpu time   74.1600: real time   75.2053

 eigenvalue-minimisations  :   960
 total energy-change (2. order) : 0.3982098E+03  (-0.1634137E+04)
 number of electron      56.0000000 magnetization      14.8000000
 augmentation part       56.0000000 magnetization      14.8000000

 Free energy of the ion-electron system (eV)
  ---------------------------------------------------
  alpha Z        PSCENC =        19.93249583
  Ewald energy   TEWEN  =      5985.89955237
  -Hartree energ DENC   =     -8126.32762610
  -exchange      EXHF   =         0.00000000
  -V(xc)+E(xc)   XCENC  =        12.93969993
  PAW double counting   =      1117.92696054    -1021.32800935
  entropy T*S    EENTRO =         0.00000000
  eigenvalues    EBANDS =       -23.42225151
  atomic energy  EATOM  =      2432.58897501
  Solvation  Ediel_sol  =         0.00000000
  ---------------------------------------------------
  free energy    TOTEN  =       398.20979673 eV

  energy without entropy =      398.20979673  energy(sigma->0) =      398.20979673


--------------------------------------------------------------------------------------------------------




--------------------------------------- Iteration      1(   2)  ---------------------------------------


     EDDAV:  cpu time   26.5120: real time   26.6117
 BZINTS: Fermi energy: -1.308286; 56.000000 electrons
         Band energy:-387.224559;  BLOECHL correction: -0.068439
       DOS:  cpu time    0.0080: real time    0.0061
    --------------------------------------------
      LOOP:  cpu time   26.5200: real time   26.6178

 eigenvalue-minimisations  :  1152
 total energy-change (2. order) :-0.3638023E+03  (-0.3350633E+03)
 number of electron      56.0000000 magnetization      14.8000000
 augmentation part       56.0000000 magnetization      14.8000000

 Free energy of the ion-electron system (eV)
  ---------------------------------------------------
  alpha Z        PSCENC =        19.93249583
  Ewald energy   TEWEN  =      5985.89955237
  -Hartree energ DENC   =     -8126.32762610
  -exchange      EXHF   =         0.00000000
  -V(xc)+E(xc)   XCENC  =        12.93969993
  PAW double counting   =      1117.92696054    -1021.32800935
  entropy T*S    EENTRO =         0.00000000
  eigenvalues    EBANDS =      -387.22455872
  atomic energy  EATOM  =      2432.58897501
  Solvation  Ediel_sol  =         0.00000000
  ---------------------------------------------------
  free energy    TOTEN  =        34.40748952 eV

  energy without entropy =       34.40748952  energy(sigma->0) =       34.40748952


--------------------------------------------------------------------------------------------------------




--------------------------------------- Iteration      1(   3)  ---------------------------------------


     EDDAV:  cpu time   32.0120: real time   32.1132
 BZINTS: Fermi energy: -2.741570; 56.000000 electrons
         Band energy:-472.075264;  BLOECHL correction: -0.005276
       DOS:  cpu time    0.0040: real time    0.0050
    --------------------------------------------
      LOOP:  cpu time   32.0160: real time   32.1182

 eigenvalue-minimisations  :  1424
 total energy-change (2. order) :-0.8485071E+02  (-0.8065031E+02)
 number of electron      56.0000000 magnetization      14.8000000
 augmentation part       56.0000000 magnetization      14.8000000

 Free energy of the ion-electron system (eV)
  ---------------------------------------------------
  alpha Z        PSCENC =        19.93249583
  Ewald energy   TEWEN  =      5985.89955237
  -Hartree energ DENC   =     -8126.32762610
  -exchange      EXHF   =         0.00000000
  -V(xc)+E(xc)   XCENC  =        12.93969993
  PAW double counting   =      1117.92696054    -1021.32800935
  entropy T*S    EENTRO =         0.00000000
  eigenvalues    EBANDS =      -472.07526437
  atomic energy  EATOM  =      2432.58897501
  Solvation  Ediel_sol  =         0.00000000
  ---------------------------------------------------
  free energy    TOTEN  =       -50.44321614 eV

  energy without entropy =      -50.44321614  energy(sigma->0) =      -50.44321614


--------------------------------------------------------------------------------------------------------




--------------------------------------- Iteration      1(   4)  ---------------------------------------


     EDDAV:  cpu time   29.2280: real time   29.3607
 BZINTS: Fermi energy: -2.769036; 56.000000 electrons
         Band energy:-477.131022;  BLOECHL correction: -0.008259
       DOS:  cpu time    0.0040: real time    0.0050
    --------------------------------------------
      LOOP:  cpu time   29.2320: real time   29.3657

 eigenvalue-minimisations  :  1296
 total energy-change (2. order) :-0.5055757E+01  (-0.4963612E+01)
 number of electron      56.0000000 magnetization      14.8000000
 augmentation part       56.0000000 magnetization      14.8000000

 Free energy of the ion-electron system (eV)
  ---------------------------------------------------
  alpha Z        PSCENC =        19.93249583
  Ewald energy   TEWEN  =      5985.89955237
  -Hartree energ DENC   =     -8126.32762610
  -exchange      EXHF   =         0.00000000
  -V(xc)+E(xc)   XCENC  =        12.93969993
  PAW double counting   =      1117.92696054    -1021.32800935
  entropy T*S    EENTRO =         0.00000000
  eigenvalues    EBANDS =      -477.13102171
  atomic energy  EATOM  =      2432.58897501
  Solvation  Ediel_sol  =         0.00000000
  ---------------------------------------------------
  free energy    TOTEN  =       -55.49897348 eV

  energy without entropy =      -55.49897348  energy(sigma->0) =      -55.49897348


--------------------------------------------------------------------------------------------------------




--------------------------------------- Iteration      1(   5)  ---------------------------------------


     EDDAV:  cpu time   29.7400: real time   29.9109
 BZINTS: Fermi energy: -2.770286; 56.000000 electrons
         Band energy:-477.272381;  BLOECHL correction: -0.008304
       DOS:  cpu time    0.0080: real time    0.0077
    CHARGE:  cpu time    1.9200: real time    1.9267
    MIXING:  cpu time    0.0400: real time    0.0401
    --------------------------------------------
      LOOP:  cpu time   31.7080: real time   31.8854

 eigenvalue-minimisations  :  1328
 total energy-change (2. order) :-0.1413589E+00  (-0.1412406E+00)
 number of electron      55.9999996 magnetization      13.6420376
 augmentation part       -4.2168409 magnetization      11.6486446

 Broyden mixing:
  rms(total) = 0.28741E+01    rms(broyden)= 0.28741E+01
  rms(prec ) = 0.31290E+01
  weight for this iteration     100.00

 Free energy of the ion-electron system (eV)
  ---------------------------------------------------
  alpha Z        PSCENC =        19.93249583
  Ewald energy   TEWEN  =      5985.89955237
  -Hartree energ DENC   =     -8126.32762610
  -exchange      EXHF   =         0.00000000
  -V(xc)+E(xc)   XCENC  =        12.93969993
  PAW double counting   =      1117.92696054    -1021.32800935
  entropy T*S    EENTRO =         0.00000000
  eigenvalues    EBANDS =      -477.27238057
  atomic energy  EATOM  =      2432.58897501
  Solvation  Ediel_sol  =         0.00000000
  ---------------------------------------------------
  free energy    TOTEN  =       -55.64033234 eV

  energy without entropy =      -55.64033234  energy(sigma->0) =      -55.64033234


--------------------------------------------------------------------------------------------------------




--------------------------------------- Iteration      1(   6)  ---------------------------------------


    POTLOK:  cpu time   52.0160: real time   52.3103
    SETDIJ:  cpu time    0.0440: real time    0.0430
     EDDAV:  cpu time   29.1480: real time   29.4399
 BZINTS: Fermi energy: -5.106004; 56.000000 electrons
         Band energy:-581.982685;  BLOECHL correction: -0.024151
       DOS:  cpu time    0.0040: real time    0.0073
    CHARGE:  cpu time    1.9560: real time    1.9552
    MIXING:  cpu time    0.0400: real time    0.0420
    --------------------------------------------
      LOOP:  cpu time   83.2080: real time   83.7976

 eigenvalue-minimisations  :  1296
 total energy-change (2. order) :-0.6269713E+02  (-0.3391713E+02)
 number of electron      55.9999994 magnetization      13.3362741
 augmentation part        9.3810983 magnetization       9.5880278

 Broyden mixing:
  rms(total) = 0.62552E+01    rms(broyden)= 0.62552E+01
  rms(prec ) = 0.70426E+01
  weight for this iteration     100.00

 eigenvalues of (default mixing * dielectric matrix)
  average eigenvalue GAMMA=   0.3357
  0.3357

 Free energy of the ion-electron system (eV)
  ---------------------------------------------------
  alpha Z        PSCENC =        19.93249583
  Ewald energy   TEWEN  =      5985.89955237
  -Hartree energ DENC   =     -8093.33310485
  -exchange      EXHF   =         0.00000000
  -V(xc)+E(xc)   XCENC  =        12.46499942
  PAW double counting   =      1060.43698322     -954.34467341
  entropy T*S    EENTRO =         0.00000000
  eigenvalues    EBANDS =      -581.98268512
  atomic energy  EATOM  =      2432.58897501
  Solvation  Ediel_sol  =         0.00000000
  ---------------------------------------------------
  free energy    TOTEN  =      -118.33745753 eV

  energy without entropy =     -118.33745753  energy(sigma->0) =     -118.33745753


--------------------------------------------------------------------------------------------------------




--------------------------------------- Iteration      1(   7)  ---------------------------------------


    POTLOK:  cpu time   52.2320: real time   52.5194
    SETDIJ:  cpu time    0.0400: real time    0.0409
     EDDAV:  cpu time   26.6880: real time   26.7325
 BZINTS: Fermi energy: -3.732522; 56.000000 electrons
         Band energy:-463.783906;  BLOECHL correction: -0.002847
       DOS:  cpu time    0.0040: real time    0.0073
    CHARGE:  cpu time    1.9200: real time    1.9331
    MIXING:  cpu time    0.0480: real time    0.0462
    --------------------------------------------
      LOOP:  cpu time   80.9320: real time   81.2796

 eigenvalue-minimisations  :  1168
 total energy-change (2. order) : 0.7531899E+02  (-0.1353970E+02)
 number of electron      55.9999996 magnetization      12.8905193
 augmentation part       -2.0959778 magnetization       9.8485911

 Broyden mixing:
  rms(total) = 0.17600E+01    rms(broyden)= 0.17599E+01
  rms(prec ) = 0.18253E+01
  weight for this iteration     100.00

 eigenvalues of (default mixing * dielectric matrix)
  average eigenvalue GAMMA=   0.4008
  0.5657  0.2359

 Free energy of the ion-electron system (eV)
  ---------------------------------------------------
  alpha Z        PSCENC =        19.93249583
  Ewald energy   TEWEN  =      5985.89955237
  -Hartree energ DENC   =     -8125.38663282
  -exchange      EXHF   =         0.00000000
  -V(xc)+E(xc)   XCENC  =        11.24245268
  PAW double counting   =      1127.00303896    -1030.51444217
  entropy T*S    EENTRO =         0.00000000
  eigenvalues    EBANDS =      -463.78390557
  atomic energy  EATOM  =      2432.58897501
  Solvation  Ediel_sol  =         0.00000000
  ---------------------------------------------------
  free energy    TOTEN  =       -43.01846570 eV

  energy without entropy =      -43.01846570  energy(sigma->0) =      -43.01846570


--------------------------------------------------------------------------------------------------------




--------------------------------------- Iteration      1(   8)  ---------------------------------------


    POTLOK:  cpu time   51.7880: real time   52.0520
    SETDIJ:  cpu time    0.0440: real time    0.0464
     EDDAV:  cpu time   32.3960: real time   33.3338
 BZINTS: Fermi energy: -4.525259; 56.000000 electrons
         Band energy:-471.472239;  BLOECHL correction:  0.000000
       DOS:  cpu time    0.0040: real time    0.0035
    CHARGE:  cpu time    1.8280: real time    1.8877
    MIXING:  cpu time    0.0400: real time    0.0421
    --------------------------------------------
      LOOP:  cpu time   86.1000: real time   87.3654

 eigenvalue-minimisations  :  1488
 total energy-change (2. order) :-0.2284851E+01  (-0.1186413E+01)
 number of electron      55.9999996 magnetization      12.5243120
 augmentation part       -0.7608068 magnetization      10.4274000

 Broyden mixing:
  rms(total) = 0.10909E+01    rms(broyden)= 0.10908E+01
  rms(prec ) = 0.10977E+01
  weight for this iteration     100.00

 eigenvalues of (default mixing * dielectric matrix)
  average eigenvalue GAMMA=   0.4350
  0.5280  0.5280  0.2488

 Free energy of the ion-electron system (eV)
  ---------------------------------------------------
  alpha Z        PSCENC =        19.93249583
  Ewald energy   TEWEN  =      5985.89955237
  -Hartree energ DENC   =     -8120.23196654
  -exchange      EXHF   =         0.00000000
  -V(xc)+E(xc)   XCENC  =        10.88011777
  PAW double counting   =      1115.81484827    -1018.71510035
  entropy T*S    EENTRO =         0.00000000
  eigenvalues    EBANDS =      -471.47223925
  atomic energy  EATOM  =      2432.58897501
  Solvation  Ediel_sol  =         0.00000000
  ---------------------------------------------------
  free energy    TOTEN  =       -45.30331689 eV

  energy without entropy =      -45.30331689  energy(sigma->0) =      -45.30331689


--------------------------------------------------------------------------------------------------------




--------------------------------------- Iteration      1(   9)  ---------------------------------------


    POTLOK:  cpu time   50.9880: real time   51.7157
    SETDIJ:  cpu time    0.0360: real time    0.0434
     EDDAV:  cpu time   32.8400: real time   33.0252
 BZINTS: Fermi energy: -4.581147; 56.000000 electrons
         Band energy:-470.701842;  BLOECHL correction:  0.000000
       DOS:  cpu time    0.0000: real time    0.0036
    CHARGE:  cpu time    1.9120: real time    1.9125
    MIXING:  cpu time    0.0400: real time    0.0415
    --------------------------------------------
      LOOP:  cpu time   85.8160: real time   86.7418

 eigenvalue-minimisations  :  1504
 total energy-change (2. order) :-0.1203623E+01  (-0.6275752E-01)
 number of electron      55.9999996 magnetization      11.3277936
 augmentation part       -0.8866613 magnetization       9.4904452

 Broyden mixing:
  rms(total) = 0.70349E+00    rms(broyden)= 0.70349E+00
  rms(prec ) = 0.71303E+00
  weight for this iteration     100.00

 eigenvalues of (default mixing * dielectric matrix)
  average eigenvalue GAMMA=   0.6841
  0.9220  0.9220  0.2423  0.6500

 Free energy of the ion-electron system (eV)
  ---------------------------------------------------
  alpha Z        PSCENC =        19.93249583
  Ewald energy   TEWEN  =      5985.89955237
  -Hartree energ DENC   =     -8123.24401197
  -exchange      EXHF   =         0.00000000
  -V(xc)+E(xc)   XCENC  =        11.95424062
  PAW double counting   =      1120.70801024    -1023.64436036
  entropy T*S    EENTRO =         0.00000000
  eigenvalues    EBANDS =      -470.70184165
  atomic energy  EATOM  =      2432.58897501
  Solvation  Ediel_sol  =         0.00000000
  ---------------------------------------------------
  free energy    TOTEN  =       -46.50693991 eV

  energy without entropy =      -46.50693991  energy(sigma->0) =      -46.50693991


--------------------------------------------------------------------------------------------------------




--------------------------------------- Iteration      1(  10)  ---------------------------------------


    POTLOK:  cpu time   50.9640: real time   51.0502
    SETDIJ:  cpu time    0.0440: real time    0.0433
     EDDAV:  cpu time   33.9600: real time   34.1989
 BZINTS: Fermi energy: -4.669039; 56.000000 electrons
         Band energy:-471.400700;  BLOECHL correction:  0.000000
       DOS:  cpu time    0.0000: real time    0.0015
    CHARGE:  cpu time    1.8800: real time    1.8804
    MIXING:  cpu time    0.0440: real time    0.0458
    --------------------------------------------
      LOOP:  cpu time   86.8920: real time   87.2201

 eigenvalue-minimisations  :  1552
 total energy-change (2. order) :-0.1073679E+01  (-0.1208533E+00)
 number of electron      55.9999996 magnetization      10.2435210
 augmentation part       -0.6755747 magnetization       8.9100214

 Broyden mixing:
  rms(total) = 0.31878E+00    rms(broyden)= 0.31878E+00
  rms(prec ) = 0.32334E+00
  weight for this iteration     100.00

 eigenvalues of (default mixing * dielectric matrix)
  average eigenvalue GAMMA=   0.8422
  1.4924  0.2427  0.8607  0.8607  0.7544

 Free energy of the ion-electron system (eV)
  ---------------------------------------------------
  alpha Z        PSCENC =        19.93249583
  Ewald energy   TEWEN  =      5985.89955237
  -Hartree energ DENC   =     -8125.60437245
  -exchange      EXHF   =         0.00000000
  -V(xc)+E(xc)   XCENC  =        14.33448073
  PAW double counting   =      1120.34808031    -1023.67913089
  entropy T*S    EENTRO =         0.00000000
  eigenvalues    EBANDS =      -471.40069952
  atomic energy  EATOM  =      2432.58897501
  Solvation  Ediel_sol  =         0.00000000
  ---------------------------------------------------
  free energy    TOTEN  =       -47.58061861 eV

  energy without entropy =      -47.58061861  energy(sigma->0) =      -47.58061861


--------------------------------------------------------------------------------------------------------




--------------------------------------- Iteration      1(  11)  ---------------------------------------


    POTLOK:  cpu time   50.9040: real time   51.1718
    SETDIJ:  cpu time    0.0400: real time    0.0421
     EDDAV:  cpu time   29.3920: real time   29.5316
 BZINTS: Fermi energy: -4.654190; 56.000000 electrons
         Band energy:-472.654590;  BLOECHL correction:  0.000000
       DOS:  cpu time    0.0000: real time    0.0032
    CHARGE:  cpu time    1.8720: real time    1.8752
    MIXING:  cpu time    0.0400: real time    0.0429
    --------------------------------------------
      LOOP:  cpu time   82.2480: real time   82.6668

 eigenvalue-minimisations  :  1328
 total energy-change (2. order) :-0.3317877E+00  (-0.6731006E-01)
 number of electron      55.9999996 magnetization       9.7027570
 augmentation part       -0.5378803 magnetization       8.5796329

 Broyden mixing:
  rms(total) = 0.38575E+00    rms(broyden)= 0.38575E+00
  rms(prec ) = 0.39423E+00
  weight for this iteration     100.00

 eigenvalues of (default mixing * dielectric matrix)
  average eigenvalue GAMMA=   0.8602
  2.1200  0.8539  0.8539  0.7269  0.2427  0.3639

 Free energy of the ion-electron system (eV)
  ---------------------------------------------------
  alpha Z        PSCENC =        19.93249583
  Ewald energy   TEWEN  =      5985.89955237
  -Hartree energ DENC   =     -8125.38935675
  -exchange      EXHF   =         0.00000000
  -V(xc)+E(xc)   XCENC  =        15.18299030
  PAW double counting   =      1117.56238738    -1021.03486060
  entropy T*S    EENTRO =         0.00000000
  eigenvalues    EBANDS =      -472.65458983
  atomic energy  EATOM  =      2432.58897501
  Solvation  Ediel_sol  =         0.00000000
  ---------------------------------------------------
  free energy    TOTEN  =       -47.91240629 eV

  energy without entropy =      -47.91240629  energy(sigma->0) =      -47.91240629


--------------------------------------------------------------------------------------------------------




--------------------------------------- Iteration      1(  12)  ---------------------------------------


    POTLOK:  cpu time   50.8960: real time   51.0604
    SETDIJ:  cpu time    0.0440: real time    0.0426
     EDDAV:  cpu time   30.5000: real time   30.7866
 BZINTS: Fermi energy: -4.668733; 56.000000 electrons
         Band energy:-472.774585;  BLOECHL correction:  0.000000
       DOS:  cpu time    0.0040: real time    0.0038
    CHARGE:  cpu time    1.9080: real time    1.9124
    MIXING:  cpu time    0.0440: real time    0.0438
    --------------------------------------------
      LOOP:  cpu time   83.3960: real time   83.8496

 eigenvalue-minimisations  :  1392
 total energy-change (2. order) :-0.9592851E-01  (-0.2022005E-01)
 number of electron      55.9999996 magnetization       8.6588836
 augmentation part       -0.5126693 magnetization       7.5758174

 Broyden mixing:
  rms(total) = 0.32788E+00    rms(broyden)= 0.32787E+00
  rms(prec ) = 0.32988E+00
  weight for this iteration     100.00

 eigenvalues of (default mixing * dielectric matrix)
  average eigenvalue GAMMA=   0.9670
  2.7719  0.9536  0.9536  0.7518  0.7518  0.2427  0.3435

 Free energy of the ion-electron system (eV)
  ---------------------------------------------------
  alpha Z        PSCENC =        19.93249583
  Ewald energy   TEWEN  =      5985.89955237
  -Hartree energ DENC   =     -8125.31539521
  -exchange      EXHF   =         0.00000000
  -V(xc)+E(xc)   XCENC  =        15.23055805
  PAW double counting   =      1116.53310382    -1020.10303956
  entropy T*S    EENTRO =         0.00000000
  eigenvalues    EBANDS =      -472.77458511
  atomic energy  EATOM  =      2432.58897501
  Solvation  Ediel_sol  =         0.00000000
  ---------------------------------------------------
  free energy    TOTEN  =       -48.00833480 eV

  energy without entropy =      -48.00833480  energy(sigma->0) =      -48.00833480


--------------------------------------------------------------------------------------------------------




--------------------------------------- Iteration      1(  13)  ---------------------------------------


    POTLOK:  cpu time   51.0440: real time   51.3595
    SETDIJ:  cpu time    0.0600: real time    0.0614
     EDDAV:  cpu time   28.4640: real time   28.5512
 BZINTS: Fermi energy: -4.655191; 56.000000 electrons
         Band energy:-472.255584;  BLOECHL correction:  0.000000
       DOS:  cpu time    0.0040: real time    0.0034
    CHARGE:  cpu time    1.8680: real time    1.8756
    MIXING:  cpu time    0.0440: real time    0.0447
    --------------------------------------------
      LOOP:  cpu time   81.4840: real time   81.8959

 eigenvalue-minimisations  :  1280
 total energy-change (2. order) :-0.2199218E+00  (-0.6281490E-02)
 number of electron      55.9999996 magnetization       6.9922435
 augmentation part       -0.5280582 magnetization       5.8607178

 Broyden mixing:
  rms(total) = 0.23963E+00    rms(broyden)= 0.23963E+00
  rms(prec ) = 0.24122E+00
  weight for this iteration     100.00

 eigenvalues of (default mixing * dielectric matrix)
  average eigenvalue GAMMA=   1.2164
  4.3633  1.2436  1.0757  0.9004  0.9004  0.2427  0.6534  0.3519

 Free energy of the ion-electron system (eV)
  ---------------------------------------------------
  alpha Z        PSCENC =        19.93249583
  Ewald energy   TEWEN  =      5985.89955237
  -Hartree energ DENC   =     -8125.34122545
  -exchange      EXHF   =         0.00000000
  -V(xc)+E(xc)   XCENC  =        14.71243773
  PAW double counting   =      1115.58485135    -1019.34975978
  entropy T*S    EENTRO =         0.00000000
  eigenvalues    EBANDS =      -472.25558369
  atomic energy  EATOM  =      2432.58897501
  Solvation  Ediel_sol  =         0.00000000
  ---------------------------------------------------
  free energy    TOTEN  =       -48.22825662 eV

  energy without entropy =      -48.22825662  energy(sigma->0) =      -48.22825662


--------------------------------------------------------------------------------------------------------




--------------------------------------- Iteration      1(  14)  ---------------------------------------


    POTLOK:  cpu time   50.9800: real time   51.0447
    SETDIJ:  cpu time    0.0400: real time    0.0428
     EDDAV:  cpu time   27.1680: real time   27.2285
 BZINTS: Fermi energy: -4.632656; 56.000000 electrons
         Band energy:-471.297192;  BLOECHL correction:  0.000000
       DOS:  cpu time    0.0000: real time    0.0039
    CHARGE:  cpu time    1.9040: real time    1.9070
    MIXING:  cpu time    0.0440: real time    0.0458
    --------------------------------------------
      LOOP:  cpu time   80.1360: real time   80.2727

 eigenvalue-minimisations  :  1216
 total energy-change (2. order) :-0.2138485E+00  (-0.1062747E-01)
 number of electron      55.9999996 magnetization       6.2360878
 augmentation part       -0.5932512 magnetization       4.9831704

 Broyden mixing:
  rms(total) = 0.69503E-01    rms(broyden)= 0.69502E-01
  rms(prec ) = 0.70814E-01
  weight for this iteration     100.00

 eigenvalues of (default mixing * dielectric matrix)
  average eigenvalue GAMMA=   1.5534
  7.2091  1.8660  0.9154  0.9154  0.9193  0.9193  0.2427  0.6405  0.3525

 Free energy of the ion-electron system (eV)
  ---------------------------------------------------
  alpha Z        PSCENC =        19.93249583
  Ewald energy   TEWEN  =      5985.89955237
  -Hartree energ DENC   =     -8125.51625524
  -exchange      EXHF   =         0.00000000
  -V(xc)+E(xc)   XCENC  =        13.67198331
  PAW double counting   =      1116.18078918    -1019.90245406
  entropy T*S    EENTRO =         0.00000000
  eigenvalues    EBANDS =      -471.29719159
  atomic energy  EATOM  =      2432.58897501
  Solvation  Ediel_sol  =         0.00000000
  ---------------------------------------------------
  free energy    TOTEN  =       -48.44210517 eV

  energy without entropy =      -48.44210517  energy(sigma->0) =      -48.44210517


--------------------------------------------------------------------------------------------------------




--------------------------------------- Iteration      1(  15)  ---------------------------------------


    POTLOK:  cpu time   50.9280: real time   51.0798
    SETDIJ:  cpu time    0.0440: real time    0.0428
     EDDAV:  cpu time   28.1640: real time   28.1979
 BZINTS: Fermi energy: -4.605487; 56.000000 electrons
         Band energy:-471.143214;  BLOECHL correction:  0.000000
       DOS:  cpu time    0.0000: real time    0.0032
    CHARGE:  cpu time    1.8680: real time    1.8712
    MIXING:  cpu time    0.0840: real time    0.0841
    --------------------------------------------
      LOOP:  cpu time   81.0880: real time   81.2790

 eigenvalue-minimisations  :  1264
 total energy-change (2. order) :-0.3009518E-01  (-0.3977258E-02)
 number of electron      55.9999996 magnetization       6.0401021
 augmentation part       -0.6042051 magnetization       4.7334776

 Broyden mixing:
  rms(total) = 0.46126E-01    rms(broyden)= 0.46125E-01
  rms(prec ) = 0.46872E-01
  weight for this iteration     100.00

 eigenvalues of (default mixing * dielectric matrix)
  average eigenvalue GAMMA=   1.6738
  8.5445  2.0432  1.2698  1.0940  0.8973  0.8973  0.2427  0.7601  0.6369  0.3524

 Free energy of the ion-electron system (eV)
  ---------------------------------------------------
  alpha Z        PSCENC =        19.93249583
  Ewald energy   TEWEN  =      5985.89955237
  -Hartree energ DENC   =     -8125.35814503
  -exchange      EXHF   =         0.00000000
  -V(xc)+E(xc)   XCENC  =        13.27438962
  PAW double counting   =      1115.46002727    -1019.12628130
  entropy T*S    EENTRO =         0.00000000
  eigenvalues    EBANDS =      -471.14321413
  atomic energy  EATOM  =      2432.58897501
  Solvation  Ediel_sol  =         0.00000000
  ---------------------------------------------------
  free energy    TOTEN  =       -48.47220036 eV

  energy without entropy =      -48.47220036  energy(sigma->0) =      -48.47220036


--------------------------------------------------------------------------------------------------------




--------------------------------------- Iteration      1(  16)  ---------------------------------------


    POTLOK:  cpu time   51.1040: real time   51.1304
    SETDIJ:  cpu time    0.0440: real time    0.0434
     EDDAV:  cpu time   32.0160: real time   32.1319
 BZINTS: Fermi energy: -4.618374; 56.000000 electrons
         Band energy:-471.344362;  BLOECHL correction:  0.000000
       DOS:  cpu time    0.0040: real time    0.0018
    CHARGE:  cpu time    1.9040: real time    1.9063
    MIXING:  cpu time    0.0480: real time    0.0482
    --------------------------------------------
      LOOP:  cpu time   85.1200: real time   85.2619

 eigenvalue-minimisations  :  1456
 total energy-change (2. order) :-0.1495641E-02  (-0.8409508E-03)
 number of electron      55.9999996 magnetization       6.0079754
 augmentation part       -0.5915682 magnetization       4.7210868

 Broyden mixing:
  rms(total) = 0.17460E-01    rms(broyden)= 0.17460E-01
  rms(prec ) = 0.17740E-01
  weight for this iteration     100.00

 eigenvalues of (default mixing * dielectric matrix)
  average eigenvalue GAMMA=   1.6988
  9.1123  2.3881  1.2960  1.2960  0.8947  0.8947  0.2427  0.3524  0.8413  0.7431
  0.6260

 Free energy of the ion-electron system (eV)
  ---------------------------------------------------
  alpha Z        PSCENC =        19.93249583
  Ewald energy   TEWEN  =      5985.89955237
  -Hartree energ DENC   =     -8125.33711038
  -exchange      EXHF   =         0.00000000
  -V(xc)+E(xc)   XCENC  =        13.34150012
  PAW double counting   =      1115.62388433    -1019.17863095
  entropy T*S    EENTRO =         0.00000000
  eigenvalues    EBANDS =      -471.34436233
  atomic energy  EATOM  =      2432.58897501
  Solvation  Ediel_sol  =         0.00000000
  ---------------------------------------------------
  free energy    TOTEN  =       -48.47369600 eV

  energy without entropy =      -48.47369600  energy(sigma->0) =      -48.47369600


--------------------------------------------------------------------------------------------------------




--------------------------------------- Iteration      1(  17)  ---------------------------------------


    POTLOK:  cpu time   51.0040: real time   51.0442
    SETDIJ:  cpu time    0.0440: real time    0.0436
     EDDAV:  cpu time   28.7960: real time   28.9777
 BZINTS: Fermi energy: -4.632461; 56.000000 electrons
         Band energy:-471.449860;  BLOECHL correction:  0.000000
       DOS:  cpu time    0.0000: real time    0.0035
    CHARGE:  cpu time    1.8600: real time    1.8620
    MIXING:  cpu time    0.0880: real time    0.0868
    --------------------------------------------
      LOOP:  cpu time   81.7920: real time   82.0179

 eigenvalue-minimisations  :  1296
 total energy-change (2. order) :-0.1529147E-03  (-0.1153904E-03)
 number of electron      55.9999996 magnetization       6.0031830
 augmentation part       -0.5890344 magnetization       4.7210569

 Broyden mixing:
  rms(total) = 0.83038E-02    rms(broyden)= 0.83038E-02
  rms(prec ) = 0.87561E-02
  weight for this iteration     100.00

 eigenvalues of (default mixing * dielectric matrix)
  average eigenvalue GAMMA=   1.6783
  9.2742  2.5814  1.4301  1.4301  0.8983  0.8983  0.2427  0.8694  0.8694  0.3524
  0.6679  0.6251

 Free energy of the ion-electron system (eV)
  ---------------------------------------------------
  alpha Z        PSCENC =        19.93249583
  Ewald energy   TEWEN  =      5985.89955237
  -Hartree energ DENC   =     -8125.26700516
  -exchange      EXHF   =         0.00000000
  -V(xc)+E(xc)   XCENC  =        13.37561469
  PAW double counting   =      1115.64121728    -1019.19483876
  entropy T*S    EENTRO =         0.00000000
  eigenvalues    EBANDS =      -471.44986018
  atomic energy  EATOM  =      2432.58897501
  Solvation  Ediel_sol  =         0.00000000
  ---------------------------------------------------
  free energy    TOTEN  =       -48.47384891 eV

  energy without entropy =      -48.47384891  energy(sigma->0) =      -48.47384891


--------------------------------------------------------------------------------------------------------




--------------------------------------- Iteration      1(  18)  ---------------------------------------


    POTLOK:  cpu time   50.9560: real time   51.0947
    SETDIJ:  cpu time    0.0400: real time    0.0425
     EDDAV:  cpu time   24.2680: real time   24.5065
 BZINTS: Fermi energy: -4.627012; 56.000000 electrons
         Band energy:-471.531445;  BLOECHL correction:  0.000000
       DOS:  cpu time    0.0040: real time    0.0012
    --------------------------------------------
      LOOP:  cpu time   75.2680: real time   75.6449

 eigenvalue-minimisations  :  1072
 total energy-change (2. order) :-0.4728744E-04  (-0.3612355E-04)
 number of electron      55.9999996 magnetization       6.0031830
 augmentation part       -0.5890344 magnetization       4.7210569

 Free energy of the ion-electron system (eV)
  ---------------------------------------------------
  alpha Z        PSCENC =        19.93249583
  Ewald energy   TEWEN  =      5985.89955237
  -Hartree energ DENC   =     -8125.19522980
  -exchange      EXHF   =         0.00000000
  -V(xc)+E(xc)   XCENC  =        13.39130124
  PAW double counting   =      1115.71346435    -1019.27300998
  entropy T*S    EENTRO =         0.00000000
  eigenvalues    EBANDS =      -471.53144523
  atomic energy  EATOM  =      2432.58897501
  Solvation  Ediel_sol  =         0.00000000
  ---------------------------------------------------
  free energy    TOTEN  =       -48.47389620 eV

  energy without entropy =      -48.47389620  energy(sigma->0) =      -48.47389620


--------------------------------------------------------------------------------------------------------




 average (electrostatic) potential at core
  the test charge radii are     1.1394  0.9892  1.1631  0.9698
  (the norm of the test charge is              1.0000)
       1 -52.7031       2 -52.6950       3 -94.7198       4 -41.2679       5 -95.0820
       6 -95.0820       7 -95.0819       8 -95.1262       9 -95.1262      10 -95.1261



 E-fermi :  -4.6270     XC(G=0):  -3.1053     alpha+bet : -2.1202


 spin component 1

 k-point     1 :       0.0000    0.0000    0.0000
  band No.  band energies     occupation 
      1     -16.2330      1.00000
      2     -15.7636      1.00000
      3     -15.3312      1.00000
      4     -15.3311      1.00000
      5     -15.2816      1.00000
      6     -15.2816      1.00000
      7     -12.3830      1.00000
      8      -9.9270      1.00000
      9      -7.5656      1.00000
     10      -7.5655      1.00000
     11      -7.4518      1.00000
     12      -7.2989      1.00000
     13      -7.1271      1.00000
     14      -7.1271      1.00000
     15      -6.3030      1.00000
     16      -6.1685      1.00000
     17      -6.1685      1.00000
     18      -5.9598      1.00000
     19      -5.9598      1.00000
     20      -5.7306      1.00000
     21      -5.3925      1.00000
     22      -5.3925      1.00000
     23      -5.1551      1.00000
     24      -5.0785      1.00000
     25      -5.0785      1.00000
     26      -5.0706      1.00000
     27      -5.0706      1.00000
     28      -5.0655      1.00000
     29      -4.7190      1.00000
     30      -4.6670      1.00000
     31      -4.6670      1.00000
     32      -3.5585      0.00000
     33      -3.4202      0.00000
     34      -3.4202      0.00000
     35      -3.1934      0.00000
     36      -3.1934      0.00000
     37      -3.1134      0.00000
     38      -1.1998      0.00000
     39      -1.1997      0.00000
     40       0.3812      0.00000
     41       0.5281      0.00000
     42       0.5281      0.00000
     43       0.7184      0.00000
     44       0.7578      0.00000
     45       1.5165      0.00000
     46       1.6260      0.00000
     47       2.1364      0.00000
     48       2.3125      0.00000

 k-point     2 :       0.2000    0.0000    0.0000
  band No.  band energies     occupation 
      1     -16.1554      1.00000
      2     -15.7154      1.00000
      3     -15.4068      1.00000
      4     -15.3650      1.00000
      5     -15.3239      1.00000
      6     -15.3051      1.00000
      7     -12.3627      1.00000
      8      -9.9730      1.00000
      9      -7.5413      1.00000
     10      -7.5170      1.00000
     11      -7.4119      1.00000
     12      -7.2209      1.00000
     13      -6.8915      1.00000
     14      -6.7187      1.00000
     15      -6.3247      1.00000
     16      -6.2303      1.00000
     17      -6.2013      1.00000
     18      -6.1347      1.00000
     19      -5.7641      1.00000
     20      -5.6939      1.00000
     21      -5.6324      1.00000
     22      -5.6097      1.00000
     23      -5.2411      1.00000
     24      -5.2032      1.00000
     25      -5.1143      1.00000
     26      -5.0850      1.00000
     27      -5.0435      1.00000
     28      -5.0012      1.00000
     29      -4.9368      1.00000
     30      -4.7234      1.00000
     31      -4.6478      1.00000
     32      -3.8219      0.00000
     33      -3.4093      0.00000
     34      -3.4047      0.00000
     35      -3.2624      0.00000
     36      -3.0064      0.00000
     37      -2.7974      0.00000
     38      -1.2897      0.00000
     39      -1.2213      0.00000
     40       0.2474      0.00000
     41       0.2994      0.00000
     42       0.6046      0.00000
     43       0.6569      0.00000
     44       0.7644      0.00000
     45       1.5916      0.00000
     46       1.7314      0.00000
     47       2.1271      0.00000
     48       2.3142      0.00000

 k-point     3 :       0.4000    0.0000    0.0000
  band No.  band energies     occupation 
      1     -15.9507      1.00000
      2     -15.6389      1.00000
      3     -15.5882      1.00000
      4     -15.4243      1.00000
      5     -15.3927      1.00000
      6     -15.3586      1.00000
      7     -12.3258      1.00000
      8     -10.0328      1.00000
      9      -7.5187      1.00000
     10      -7.4039      1.00000
     11      -7.1164      1.00000
     12      -6.8541      1.00000
     13      -6.4912      1.00000
     14      -6.4808      1.00000
     15      -6.3772      1.00000
     16      -6.3362      1.00000
     17      -6.2830      1.00000
     18      -6.2731      1.00000
     19      -5.9941      1.00000
     20      -5.9080      1.00000
     21      -5.8261      1.00000
     22      -5.4514      1.00000
     23      -5.4010      1.00000
     24      -5.3494      1.00000
     25      -5.1969      1.00000
     26      -5.1301      1.00000
     27      -5.1179      1.00000
     28      -4.9044      1.00000
     29      -4.8459      1.00000
     30      -4.8342      1.00000
     31      -4.7262      1.00000
     32      -3.7826      0.00000
     33      -3.4532      0.00000
     34      -3.4122      0.00000
     35      -3.4021      0.00000
     36      -3.1669      0.00000
     37      -2.5690      0.00000
     38      -1.3490      0.00000
     39      -1.3042      0.00000
     40      -0.0815      0.00000
     41      -0.0443      0.00000
     42       0.4773      0.00000
     43       0.8427      0.00000
     44       0.9332      0.00000
     45       1.8391      0.00000
     46       1.9501      0.00000
     47       2.2994      0.00000
     48       2.3892      0.00000

 k-point     4 :       0.4000    0.2000    0.0000
  band No.  band energies     occupation 
      1     -16.0128      1.00000
      2     -15.6329      1.00000
      3     -15.5004      1.00000
      4     -15.4759      1.00000
      5     -15.3766      1.00000
      6     -15.3402      1.00000
      7     -12.3309      1.00000
      8     -10.0204      1.00000
      9      -7.5671      1.00000
     10      -7.3068      1.00000
     11      -7.2875      1.00000
     12      -6.9890      1.00000
     13      -6.5550      1.00000
     14      -6.4213      1.00000
     15      -6.3754      1.00000
     16      -6.3368      1.00000
     17      -6.2648      1.00000
     18      -6.1665      1.00000
     19      -5.9827      1.00000
     20      -5.9197      1.00000
     21      -5.8832      1.00000
     22      -5.4830      1.00000
     23      -5.3240      1.00000
     24      -5.2708      1.00000
     25      -5.1816      1.00000
     26      -5.0905      1.00000
     27      -5.0297      1.00000
     28      -4.9902      1.00000
     29      -4.8635      1.00000
     30      -4.8053      1.00000
     31      -4.7125      1.00000
     32      -3.8833      0.00000
     33      -3.4623      0.00000
     34      -3.3978      0.00000
     35      -3.2387      0.00000
     36      -3.1568      0.00000
     37      -2.6056      0.00000
     38      -1.4063      0.00000
     39      -1.3002      0.00000
     40      -0.1512      0.00000
     41       0.0636      0.00000
     42       0.5036      0.00000
     43       0.8724      0.00000
     44       0.8791      0.00000
     45       1.7848      0.00000
     46       1.9127      0.00000
     47       2.2890      0.00000
     48       2.4372      0.00000

 k-point     5 :      -0.4000    0.2000    0.0000
  band No.  band energies     occupation 
      1     -15.8279      1.00000
      2     -15.6879      1.00000
      3     -15.5433      1.00000
      4     -15.5081      1.00000
      5     -15.4401      1.00000
      6     -15.3744      1.00000
      7     -12.3077      1.00000
      8     -10.0428      1.00000
      9      -7.4608      1.00000
     10      -7.2033      1.00000
     11      -7.1464      1.00000
     12      -6.8989      1.00000
     13      -6.6615      1.00000
     14      -6.4815      1.00000
     15      -6.3895      1.00000
     16      -6.2592      1.00000
     17      -6.1817      1.00000
     18      -6.1719      1.00000
     19      -6.0889      1.00000
     20      -6.0430      1.00000
     21      -5.8276      1.00000
     22      -5.5369      1.00000
     23      -5.3074      1.00000
     24      -5.2566      1.00000
     25      -5.1992      1.00000
     26      -5.0551      1.00000
     27      -5.0400      1.00000
     28      -4.9327      1.00000
     29      -4.8754      1.00000
     30      -4.8231      1.00000
     31      -4.8179      1.00000
     32      -3.7173      0.00000
     33      -3.5383      0.00000
     34      -3.5040      0.00000
[...]
     34      -0.2044      0.00000
     35       0.0397      0.00000
     36       0.0497      0.00000
     37       1.0389      0.00000
     38       1.4030      0.00000
     39       1.4458      0.00000
     40       2.2199      0.00000
     41       2.4075      0.00000
     42       2.6614      0.00000
     43       2.8335      0.00000
     44       2.9233      0.00000
     45       3.3204      0.00000
     46       3.5580      0.00000
     47       3.9794      0.00000
     48       4.0976      0.00000

 k-point     5 :      -0.4000    0.2000    0.0000
  band No.  band energies     occupation 
      1     -16.5656      1.00000
      2     -16.0063      1.00000
      3     -15.8367      1.00000
      4     -15.6515      1.00000
      5     -15.4689      1.00000
      6     -15.3240      1.00000
      7     -11.1328      1.00000
      8      -9.5632      1.00000
      9      -7.8719      1.00000
     10      -7.4471      1.00000
     11      -7.3676      1.00000
     12      -6.8743      1.00000
     13      -6.8288      1.00000
     14      -6.3078      1.00000
     15      -5.9392      1.00000
     16      -5.7954      1.00000
     17      -5.7072      1.00000
     18      -5.4985      1.00000
     19      -5.4765      1.00000
     20      -5.2276      1.00000
     21      -5.0620      1.00000
     22      -4.5868      1.00000
     23      -4.4330      1.00000
     24      -4.2904      1.00000
     25      -3.6645      1.00000
     26      -2.3199      0.00000
     27      -1.5932      0.00000
     28      -1.5813      0.00000
     29      -0.8979      0.00000
     30      -0.8849      0.00000
     31      -0.7264      0.00000
     32      -0.6647      0.00000
     33      -0.3957      0.00000
     34      -0.3257      0.00000
     35       0.0253      0.00000
     36       0.0358      0.00000
     37       1.0522      0.00000
     38       1.1869      0.00000
     39       1.3536      0.00000
     40       2.2433      0.00000
     41       2.3704      0.00000
     42       2.4202      0.00000
     43       3.1028      0.00000
     44       3.2421      0.00000
     45       3.4473      0.00000
     46       3.4717      0.00000
     47       3.7870      0.00000
     48       4.1079      0.00000


--------------------------------------------------------------------------------------------------------


 soft charge-density along one line, spin component           1
         0         1         2         3         4         5         6         7         8         9
 total charge-density along one line

 soft charge-density along one line, spin component           2
         0         1         2         3         4         5         6         7         8         9
 total charge-density along one line

 pseudopotential strength for first ion, spin component:           1
 -8.999   0.103  -0.000   0.011  -0.000   0.743  -0.028   0.000
  0.103  -8.921   0.000   0.000   0.011  -0.028   0.722  -0.000
 -0.000   0.000  -9.085   0.000   0.000   0.000  -0.000   0.767
  0.011   0.000   0.000  -8.921  -0.103  -0.003  -0.000  -0.000
 -0.000   0.011   0.000  -0.103  -8.999   0.000  -0.003  -0.000
  0.743  -0.028   0.000  -0.003   0.000   0.347   0.007  -0.000
 -0.028   0.722  -0.000  -0.000  -0.003   0.007   0.352   0.000
  0.000  -0.000   0.767  -0.000  -0.000  -0.000   0.000   0.341
 -0.003  -0.000  -0.000   0.722   0.028   0.001   0.000   0.000
  0.000  -0.003  -0.000   0.028   0.743  -0.000   0.001   0.000
 -0.000  -0.000   0.001  -0.000   0.000  -0.000   0.000  -0.000
  0.000   0.000  -0.000   0.000  -0.000  -0.000  -0.000   0.000
  0.000   0.003   0.000  -0.000   0.001  -0.000  -0.001  -0.000
 -0.000  -0.000   0.003  -0.000  -0.000   0.000   0.000  -0.001
  0.001  -0.000   0.000   0.003  -0.000   0.000   0.000  -0.000
 -0.000  -0.001  -0.000   0.000  -0.001   0.000   0.000   0.000
  0.000   0.000  -0.000   0.000   0.000  -0.000  -0.000   0.000
 -0.001   0.000  -0.000  -0.001   0.000   0.000  -0.000   0.000
 pseudopotential strength for first ion, spin component:           2
 -7.375  -0.194  -0.000  -0.021  -0.000   0.284   0.051   0.000
 -0.194  -7.569   0.000   0.000  -0.021   0.051   0.335  -0.000
 -0.000   0.000  -7.255   0.000   0.000   0.000  -0.000   0.253
 -0.021   0.000   0.000  -7.569   0.194   0.005  -0.000  -0.000
 -0.000  -0.021   0.000   0.194  -7.375   0.000   0.005  -0.000
  0.284   0.051   0.000   0.005   0.000   0.472  -0.013  -0.000
  0.051   0.335  -0.000  -0.000   0.005  -0.013   0.459   0.000
  0.000  -0.000   0.253  -0.000  -0.000  -0.000   0.000   0.480
  0.005  -0.000  -0.000   0.335  -0.051  -0.001   0.000   0.000
  0.000   0.005  -0.000  -0.051   0.284  -0.000  -0.001   0.000
 -0.000  -0.000   0.008  -0.000   0.000  -0.000   0.000  -0.001
  0.000   0.000  -0.001   0.000  -0.000  -0.000  -0.000   0.000
  0.001   0.002   0.000  -0.000   0.001  -0.000  -0.001  -0.000
 -0.000  -0.000   0.001  -0.000   0.000   0.000   0.000  -0.000
  0.001  -0.000   0.000   0.002  -0.001   0.000   0.000  -0.000
 -0.001  -0.001  -0.000   0.000  -0.001   0.000   0.000   0.000
  0.000   0.000   0.000   0.000  -0.000  -0.000  -0.000  -0.000
 -0.001   0.000  -0.000  -0.001   0.001   0.000  -0.000   0.000
 total augmentation occupancy for first ion, spin component:           1
  0.983  -0.068   0.000  -0.006  -0.000   0.038   0.265  -0.000   0.029   0.000  -0.000  -0.000   0.010   0.000   0.005   0.000
 -0.068   0.899  -0.000  -0.000  -0.006   0.263   0.297   0.000   0.000   0.029  -0.000   0.000   0.021   0.000   0.000  -0.001
  0.000  -0.000   1.049  -0.000  -0.000  -0.000   0.000  -0.141   0.000   0.000  -0.012  -0.018   0.000   0.003   0.000   0.000
 -0.006  -0.000  -0.000   0.899   0.068   0.029  -0.000   0.000   0.297  -0.263   0.000   0.000  -0.000  -0.000   0.021  -0.000
 -0.000  -0.006  -0.000   0.068   0.983  -0.000   0.029   0.000  -0.265   0.038   0.000   0.000   0.005  -0.000  -0.010  -0.000
  0.038   0.263  -0.000   0.029  -0.000   0.220   0.091   0.000   0.011  -0.000   0.000  -0.000  -0.001   0.000   0.021  -0.000
  0.265   0.297   0.000  -0.000   0.029   0.091   0.315   0.000  -0.000   0.011   0.000  -0.000   0.012   0.000  -0.004  -0.001
 -0.000   0.000  -0.141   0.000   0.000   0.000   0.000   0.215   0.000  -0.000   0.056  -0.010  -0.000   0.012   0.000   0.000
  0.029   0.000   0.000   0.297  -0.265   0.011  -0.000   0.000   0.315  -0.091  -0.000   0.000   0.004   0.000   0.012  -0.000
  0.000   0.029   0.000  -0.263   0.038  -0.000   0.011  -0.000  -0.091   0.220  -0.000   0.000   0.021  -0.000   0.001  -0.002
 -0.000  -0.000  -0.012   0.000   0.000   0.000   0.000   0.056   0.000  -0.000   1.069  -0.190   0.000   0.027  -0.000   0.000
 -0.000  -0.000  -0.018   0.000   0.000  -0.000  -0.000  -0.010  -0.000   0.000  -0.190   0.078   0.000  -0.005   0.000   0.000
  0.010   0.021   0.000  -0.000   0.005  -0.001   0.012  -0.000   0.004   0.021   0.000   0.000   0.235   0.000  -0.000  -0.004
  0.000  -0.000   0.003  -0.000  -0.000   0.000   0.000   0.012  -0.000  -0.000   0.027  -0.005   0.000   0.255   0.000  -0.000
  0.005   0.000   0.000   0.021  -0.010   0.021  -0.004   0.000   0.012   0.001  -0.000   0.000  -0.000   0.000   0.235  -0.000
  0.000  -0.001   0.000  -0.000  -0.000  -0.000  -0.001   0.000  -0.000  -0.002   0.000   0.000  -0.004  -0.000  -0.000   0.000
 -0.000   0.000  -0.001   0.000   0.000  -0.000   0.000  -0.000  -0.000   0.000  -0.001   0.001  -0.000  -0.005  -0.000   0.000
 -0.000   0.000  -0.000  -0.001  -0.000  -0.002   0.000  -0.000  -0.001   0.000  -0.000   0.000   0.000  -0.000  -0.004  -0.000
 total augmentation occupancy for first ion, spin component:           2
  0.698  -0.318   0.000  -0.034  -0.000  -0.188   0.081  -0.000   0.008  -0.000  -0.000  -0.000   0.004  -0.000  -0.001   0.000
 -0.318   0.399  -0.000  -0.000  -0.034   0.077  -0.101   0.000  -0.000   0.008   0.000   0.000   0.001   0.000   0.004  -0.000
  0.000  -0.000   0.896  -0.000  -0.000  -0.000   0.000  -0.279   0.000   0.000  -0.030  -0.008   0.000  -0.006   0.000  -0.000
 -0.034  -0.000  -0.000   0.399   0.318   0.008   0.000   0.000  -0.101  -0.077   0.000   0.000  -0.004  -0.000   0.001   0.000
 -0.000  -0.034  -0.000   0.318   0.698   0.000   0.008   0.000  -0.081  -0.188   0.000   0.000  -0.001   0.000  -0.004   0.001
 -0.188   0.077  -0.000   0.008   0.000   0.017  -0.066   0.000  -0.007  -0.000   0.000   0.000  -0.003   0.000  -0.002  -0.000
  0.081  -0.101   0.000   0.000   0.008  -0.066  -0.046  -0.000   0.000  -0.007  -0.000   0.000  -0.003   0.000  -0.000   0.000
 -0.000   0.000  -0.279   0.000   0.000   0.000  -0.000   0.085  -0.000  -0.000   0.017   0.006  -0.000   0.002  -0.000  -0.000
  0.008  -0.000   0.000  -0.101  -0.081  -0.007   0.000  -0.000  -0.046   0.066   0.000  -0.000   0.000   0.000  -0.003  -0.000
 -0.000   0.008   0.000  -0.077  -0.188  -0.000  -0.007  -0.000   0.066   0.017  -0.000  -0.000  -0.002  -0.000   0.003  -0.000
 -0.000   0.000  -0.030   0.000   0.000   0.000   0.000   0.017   0.000  -0.000   0.148   0.066   0.000   0.002   0.000   0.000
 -0.000   0.000  -0.008   0.000   0.000   0.000   0.000   0.006  -0.000  -0.000   0.066  -0.022   0.000   0.002  -0.000   0.000
  0.004   0.001   0.000  -0.004  -0.001  -0.003  -0.003  -0.000   0.000  -0.002   0.000   0.000   0.024   0.000  -0.000   0.003
 -0.000   0.000  -0.006  -0.000   0.000   0.000   0.000   0.002   0.000  -0.000   0.002   0.002   0.000   0.021   0.000   0.000
 -0.001   0.004   0.000   0.001  -0.004  -0.002  -0.000  -0.000  -0.003   0.003   0.000  -0.000  -0.000   0.000   0.024  -0.000
  0.000  -0.000  -0.000   0.000   0.001  -0.000   0.000  -0.000  -0.000  -0.000   0.000   0.000   0.003   0.000  -0.000  -0.000
 -0.000   0.000  -0.001   0.000   0.000   0.000   0.000   0.000  -0.000  -0.000   0.000  -0.000   0.000   0.003   0.000  -0.000
  0.001  -0.000   0.000  -0.000  -0.000  -0.000   0.000  -0.000   0.000   0.000  -0.000   0.000   0.000   0.000   0.003   0.000


------------------------ aborting loop because EDIFF is reached ----------------------------------------





 total charge     

# of ion       s       p       d       tot
------------------------------------------
    1        0.351   0.493   4.223   5.067
    2        0.351   0.493   4.223   5.067
    3        0.734   0.890   0.000   1.624
    4        1.141   1.190   0.133   2.464
    5        1.365   2.341   0.000   3.706
    6        1.362   2.346   0.000   3.708
    7        1.364   2.340   0.000   3.704
    8        1.356   2.377   0.000   3.733
    9        1.350   2.392   0.000   3.742
   10        1.354   2.380   0.000   3.734
--------------------------------------------------
tot         10.728  17.244   8.579  36.551



 magnetization (x)

# of ion       s       p       d       tot
------------------------------------------
    1        0.033   0.039   2.889   2.960
    2        0.033   0.039   2.888   2.959
    3        0.004   0.029   0.000   0.033
    4        0.001   0.045  -0.002   0.045
    5       -0.001  -0.072   0.000  -0.073
    6       -0.002  -0.057   0.000  -0.060
    7       -0.001  -0.068   0.000  -0.069
    8       -0.000  -0.046   0.000  -0.046
    9       -0.001  -0.038   0.000  -0.039
   10       -0.000  -0.043   0.000  -0.043
--------------------------------------------------
tot          0.064  -0.172   5.775   5.667

    CHARGE:  cpu time    1.9480: real time    1.9547
    FORLOC:  cpu time    0.0640: real time    0.0632
    FORNL :  cpu time    6.6560: real time    6.6731
    STRESS:  cpu time   19.9400: real time   20.0742
    FORCOR:  cpu time   51.7000: real time   51.9466
    FORHAR:  cpu time    0.3280: real time    0.3308
    MIXING:  cpu time    0.0440: real time    0.0415
    OFIELD:  cpu time    0.0000: real time    0.0001

  FORCE on cell =-STRESS in cart. coord.  units (eV):
  Direction    XX          YY          ZZ          XY          YZ          ZX
  --------------------------------------------------------------------------------------
  Alpha Z    28.48489    28.48489    28.48489
  Ewald    9406.64992  9406.64750-11058.11733    -0.00116    -0.00043    -0.00077
  Hartree  9748.25537  9748.25568 -9564.91329    -0.00007     0.00003     0.00005
  E(xc)    -211.22036  -211.22036  -210.79857     0.00001     0.00000     0.00001
  Local  -20032.69254-20032.69180 19712.64874     0.00081     0.00021     0.00039
  n-local   476.69217   478.42525   479.64388     0.79771     0.56761     0.49939
  augment   -48.19707   -48.19703   -51.41999     0.00003     0.00001     0.00003
  Kinetic   633.47176   628.64025   664.63729    -3.41306     1.06828     1.00288
  Fock        0.00000     0.00000     0.00000     0.00000     0.00000     0.00000
  -------------------------------------------------------------------------------------
  Total      -0.10573    -0.10573     0.16563     0.00000    -0.00000    -0.00000
  in kB      -0.24987    -0.24987     0.39143     0.00000    -0.00000    -0.00000
  external pressure =       -0.04 kB  Pullay stress =        0.00 kB


 VOLUME and BASIS-vectors are now :
 -----------------------------------------------------------------------------
  energy-cutoff  :      520.00
  volume of cell :      677.95
      direct lattice vectors                 reciprocal lattice vectors
     5.999889242  0.000000045  0.000000000     0.166669744 -0.096226814  0.000000000
     2.999944280  5.196056305  0.000000000    -0.000000001  0.192453651 -0.000000000
     0.000000000  0.000000000 21.746022975    -0.000000000 -0.000000000  0.045985420

  length of vectors
     5.999889242  5.999888900 21.746022975     0.192453640  0.192453651  0.045985420


 FORCES acting on ions
    electron-ion (+dipol)            ewald-force                    non-local-force                 convergence-correction
 -----------------------------------------------------------------------------------------------
   -.160E-03 -.954E-04 0.838E+01   0.390E-03 0.229E-03 -.796E+01   -.699E-17 -.722E-17 -.331E+00   -.161E-06 -.893E-07 0.190E-02
   0.153E-03 0.977E-04 0.737E+01   -.408E-03 -.240E-03 -.694E+01   0.341E-17 -.292E-18 -.350E+00   -.554E-07 -.265E-07 0.138E-02
   -.292E-04 -.244E-04 0.219E+03   -.214E-03 -.119E-03 -.212E+03   -.814E-17 -.270E-16 -.734E+01   0.166E-06 0.102E-06 -.900E-02
   0.242E-04 0.251E-04 -.222E+03   0.197E-03 0.110E-03 0.216E+03   0.437E-17 0.185E-16 0.548E+01   0.149E-06 0.898E-07 0.178E-01
   -.895E+01 0.850E-02 -.456E+03   0.493E+01 0.313E-02 0.460E+03   0.404E+01 -.768E-02 -.360E+01   0.795E-02 -.710E-02 0.382E-01
   0.448E+01 0.774E+01 -.456E+03   -.246E+01 -.427E+01 0.460E+03   -.202E+01 -.349E+01 -.360E+01   -.101E-01 -.334E-02 0.382E-01
   0.446E+01 -.776E+01 -.456E+03   -.247E+01 0.426E+01 0.460E+03   -.201E+01 0.350E+01 -.360E+01   0.217E-02 0.104E-01 0.382E-01
   -.525E+01 0.237E-01 0.453E+03   0.844E+01 -.228E-01 -.456E+03   -.320E+01 0.870E-02 0.334E+01   -.273E-02 -.686E-02 -.252E-01
   0.265E+01 0.454E+01 0.453E+03   -.424E+01 -.729E+01 -.456E+03   0.161E+01 0.277E+01 0.334E+01   -.457E-02 0.579E-02 -.252E-01
   0.261E+01 -.456E+01 0.453E+03   -.420E+01 0.732E+01 -.456E+03   0.159E+01 -.278E+01 0.334E+01   0.730E-02 0.106E-02 -.252E-01
 -----------------------------------------------------------------------------------------------
   -.680E-04 -.220E-04 0.329E+01   0.000E+00 -.266E-14 -.227E-12   -.111E-14 -.444E-15 -.332E+01   0.886E-07 -.884E-07 0.509E-01


 POSITION                                       TOTAL-FORCE (eV/Angst)
 -----------------------------------------------------------------------------------
      2.99994      1.73202     10.87138        -0.000000      0.000000      0.093875
      5.99989      3.46404     10.87464        -0.000000      0.000000      0.079446
      0.00000      0.00000      9.72025        -0.000000     -0.000000     -0.020375
      0.00000      0.00000     11.99911        -0.000000      0.000000      0.081649
      3.74097      0.00088     12.41393         0.020358     -0.002262     -0.045472
      1.13022      1.95585     12.41393        -0.012138     -0.016499     -0.045472
      4.12865      3.23934     12.41393        -0.008220      0.018762     -0.045472
      5.11999      5.19518      9.33515        -0.025648      0.001873     -0.032726
      7.93905      3.36048      9.33515         0.014446      0.021276     -0.032726
      4.94062      1.83645      9.33515         0.011202     -0.023149     -0.032726
 -----------------------------------------------------------------------------------
    total drift:                               -0.000068     -0.000022      0.014468


--------------------------------------------------------------------------------------------------------



  FREE ENERGIE OF THE ION-ELECTRON SYSTEM (eV)
  ---------------------------------------------------
  free  energy   TOTEN  =       -55.03147128 eV

  energy  without entropy=      -55.03147128  energy(sigma->0) =      -55.03147128

 d Force = 0.5545408E-03[-0.473E-03, 0.158E-02]  d Energy = 0.2106209E-02-0.155E-02
 d Force = 0.1955919E+01[ 0.196E+01, 0.195E+01]  d Ewald  = 0.4433093E+01-0.248E+01


--------------------------------------------------------------------------------------------------------


    POTLOK:  cpu time   51.9360: real time   52.1516


--------------------------------------------------------------------------------------------------------




--------------------------------------------------------------------------------------------------------


  
 reached required accuracy - stopping structural energy minimisation
     LOOP+:  cpu time  542.8920: real time  544.7294
    4ORBIT:  cpu time    0.0000: real time    0.0000



 total charge     

# of ion       s       p       d       tot
------------------------------------------
    1        0.351   0.493   4.223   5.067
    2        0.351   0.493   4.223   5.067
    3        0.734   0.890   0.000   1.624
    4        1.141   1.190   0.133   2.464
    5        1.365   2.341   0.000   3.706
    6        1.362   2.346   0.000   3.708
    7        1.364   2.340   0.000   3.704
    8        1.356   2.377   0.000   3.733
    9        1.350   2.392   0.000   3.742
   10        1.354   2.380   0.000   3.734
--------------------------------------------------
tot         10.728  17.244   8.579  36.551



 magnetization (x)

# of ion       s       p       d       tot
------------------------------------------
    1        0.033   0.039   2.889   2.960
    2        0.033   0.039   2.888   2.959
    3        0.004   0.029   0.000   0.033
    4        0.001   0.045  -0.002   0.045
    5       -0.001  -0.072   0.000  -0.073
    6       -0.002  -0.057   0.000  -0.060
    7       -0.001  -0.068   0.000  -0.069
    8       -0.000  -0.046   0.000  -0.046
    9       -0.001  -0.038   0.000  -0.039
   10       -0.000  -0.043   0.000  -0.043
--------------------------------------------------
tot          0.064  -0.172   5.775   5.667

 BZINTS: Fermi energy: -3.098944; 56.000000 electrons
         Band energy:-454.738977;  BLOECHL correction:  0.000000

 total amount of memory used by VASP MPI-rank0   131325. kBytes
=======================================================================

   base      :      30000. kBytes
   nonlr-proj:       8840. kBytes
   fftplans  :      11247. kBytes
   grid      :      68332. kBytes
   one-center:        311. kBytes
   wavefun   :      12595. kBytes

  
  
 General timing and accounting informations for this job:
 ========================================================
  
                  Total CPU time used (sec):     7560.712
                            User time (sec):     7409.576
                          System time (sec):      151.136
                         Elapsed time (sec):     7599.284
  
                   Maximum memory used (kb):      383900.
                   Average memory used (kb):           0.
  
                          Minor page faults:      4583573
                          Major page faults:            5
                 Voluntary context switches:          967
