PROCAR lm decomposed
# of k-points:    5         # of bands:   48         # of ions:   10

 k-point     1 :    0.00000000 0.00000000 0.00000000     weight = 0.04000000

band     1 # energy  -17.25363491 # occ.  1.00000000

ion      s     py     pz     px    dxy    dyz    dz2    dxz  x2-y2    tot
    1  0.021  0.000  0.000  0.000  0.000  0.000  0.000  0.000  0.000  0.021
    2  0.021  0.000  0.000  0.000  0.000  0.000  0.000  0.000  0.000  0.021
    3  0.055  0.000  0.000  0.000  0.000  0.000  0.000  0.000  0.000  0.055
    4  0.066  0.000  0.000  0.000  0.000  0.000  0.000  0.000  0.000  0.066
    5  0.069  0.000  0.001  0.001  0.000  0.000  0.000  0.000  0.000  0.070
    6  0.069  0.000  0.001  0.000  0.000  0.000  0.000  0.000  0.000  0.070
    7  0.069  0.000  0.001  0.000  0.000  0.000  0.000  0.000  0.000  0.070
    8  0.086  0.000  0.001  0.001  0.000  0.000  0.000  0.000  0.000  0.088
    9  0.086  0.001  0.001  0.000  0.000  0.000  0.000  0.000  0.000  0.088
   10  0.086  0.001  0.001  0.000  0.000  0.000  0.000  0.000  0.000  0.088
tot    0.627  0.003  0.006  0.003  0.000  0.000  0.000  0.000  0.000  0.638

band     2 # energy  -16.27423102 # occ.  1.00000000

ion      s     py     pz     px    dxy    dyz    dz2    dxz  x2-y2    tot
    1  0.000  0.000  0.010  0.000  0.000  0.000  0.000  0.000  0.000  0.010
    2  0.000  0.000  0.010  0.000  0.000  0.000  0.000  0.000  0.000  0.010
    3  0.032  0.000  0.002  0.000  0.000  0.000  0.000  0.000  0.000  0.034
    4  0.047  0.000  0.002  0.000  0.000  0.000  0.001  0.000  0.000  0.051
    5  0.102  0.000  0.000  0.001  0.000  0.000  0.000  0.000  0.000  0.102
    6  0.102  0.000  0.000  0.000  0.000  0.000  0.000  0.000  0.000  0.102
    7  0.102  0.000  0.000  0.000  0.000  0.000  0.000  0.000  0.000  0.102
    8  0.085  0.000  0.000  0.001  0.000  0.000  0.000  0.000  0.000  0.086
    9  0.085  0.001  0.000  0.000  0.000  0.000  0.000  0.000  0.000  0.086
   10  0.085  0.001  0.000  0.000  0.000  0.000  0.000  0.000  0.000  0.086
tot    0.640  0.003  0.025  0.003  0.000  0.000  0.001  0.000  0.000  0.672

band     3 # energy  -15.21088155 # occ.  1.00000000

ion      s     py     pz     px    dxy    dyz    dz2    dxz  x2-y2    tot
    1  0.000  0.003  0.000  0.001  0.003  0.006  0.000  0.001  0.000  0.014
    2  0.000  0.002  0.000  0.002  0.002  0.005  0.000  0.001  0.001  0.014
    3  0.000  0.000  0.000  0.025  0.000  0.000  0.000  0.000  0.000  0.025
    4  0.000  0.000  0.000  0.002  0.000  0.000  0.000  0.000  0.000  0.002
    5  0.009  0.000  0.000  0.000  0.000  0.000  0.000  0.000  0.000  0.009
    6  0.003  0.000  0.000  0.000  0.000  0.000  0.000  0.000  0.000  0.003
    7  0.002  0.000  0.000  0.000  0.000  0.000  0.000  0.000  0.000  0.002
    8  0.423  0.000  0.002  0.003  0.000  0.000  0.000  0.000  0.000  0.429
    9  0.140  0.001  0.001  0.000  0.000  0.000  0.000  0.000  0.000  0.142
   10  0.076  0.001  0.000  0.000  0.000  0.000  0.000  0.000  0.000  0.077
tot    0.653  0.007  0.003  0.034  0.005  0.011  0.000  0.002  0.001  0.716

band     4 # energy  -15.21084376 # occ.  1.00000000

ion      s     py     pz     px    dxy    dyz    dz2    dxz  x2-y2    tot
    1  0.000  0.001  0.000  0.003  0.000  0.001  0.000  0.006  0.003  0.014
    2  0.000  0.002  0.000  0.002  0.001  0.001  0.000  0.005  0.002  0.014
    3  0.000  0.025  0.000  0.000  0.000  0.000  0.000  0.000  0.000  0.025
    4  0.000  0.002  0.000  0.000  0.000  0.000  0.000  0.000  0.000  0.002
    5  0.000  0.000  0.000  0.000  0.000  0.000  0.000  0.000  0.000  0.000
    6  0.006  0.000  0.000  0.000  0.000  0.000  0.000  0.000  0.000  0.006
    7  0.007  0.000  0.000  0.000  0.000  0.000  0.000  0.000  0.000  0.007
    8  0.003  0.000  0.000  0.000  0.000  0.000  0.000  0.000  0.000  0.003
    9  0.286  0.002  0.001  0.001  0.000  0.000  0.000  0.000  0.000  0.290
   10  0.350  0.002  0.002  0.001  0.000  0.000  0.000  0.000  0.000  0.355
tot    0.653  0.034  0.003  0.007  0.001  0.002  0.000  0.011  0.005  0.716

band     5 # energy  -15.01458332 # occ.  1.00000000

ion      s     py     pz     px    dxy    dyz    dz2    dxz  x2-y2    tot
    1  0.000  0.006  0.000  0.002  0.001  0.003  0.000  0.002  0.002  0.017
    2  0.000  0.008  0.000  0.000  0.002  0.005  0.000  0.001  0.001  0.017
    3  0.000  0.000  0.000  0.000  0.000  0.000  0.000  0.000  0.000  0.000
    4  0.000  0.001  0.000  0.023  0.000  0.000  0.000  0.000  0.003  0.028
    5  0.422  0.000  0.002  0.002  0.000  0.000  0.000  0.000  0.000  0.426
    6  0.174  0.001  0.001  0.000  0.000  0.000  0.000  0.000  0.000  0.176
    7  0.054  0.000  0.000  0.000  0.000  0.000  0.000  0.000  0.000  0.055
    8  0.010  0.000  0.000  0.000  0.000  0.000  0.000  0.000  0.000  0.010
    9  0.004  0.000  0.000  0.000  0.000  0.000  0.000  0.000  0.000  0.004
   10  0.001  0.000  0.000  0.000  0.000  0.000  0.000  0.000  0.000  0.001
tot    0.666  0.015  0.003  0.027  0.003  0.009  0.000  0.004  0.007  0.734

band     6 # energy  -15.01454704 # occ.  1.00000000

ion      s     py     pz     px    dxy    dyz    dz2    dxz  x2-y2    tot
    1  0.000  0.002  0.000  0.006  0.002  0.002  0.000  0.003  0.001  0.017
    2  0.000  0.000  0.000  0.008  0.001  0.001  0.000  0.005  0.002  0.017
    3  0.000  0.000  0.000  0.000  0.000  0.000  0.000  0.000  0.000  0.000
    4  0.000  0.023  0.000  0.001  0.003  0.000  0.000  0.000  0.000  0.028
    5  0.011  0.000  0.000  0.000  0.000  0.000  0.000  0.000  0.000  0.011
    6  0.260  0.001  0.001  0.000  0.000  0.000  0.000  0.000  0.000  0.262
    7  0.380  0.001  0.002  0.000  0.000  0.000  0.000  0.000  0.000  0.383
    8  0.000  0.000  0.000  0.000  0.000  0.000  0.000  0.000  0.000  0.000
    9  0.006  0.000  0.000  0.000  0.000  0.000  0.000  0.000  0.000  0.006
   10  0.009  0.000  0.000  0.000  0.000  0.000  0.000  0.000  0.000  0.009
tot    0.666  0.027  0.003  0.015  0.007  0.004  0.000  0.009  0.003  0.734

band     7 # energy  -11.55692161 # occ.  1.00000000

ion      s     py     pz     px    dxy    dyz    dz2    dxz  x2-y2    tot
    1  0.015  0.000  0.000  0.000  0.000  0.000  0.002  0.000  0.000  0.017
    2  0.015  0.000  0.000  0.000  0.000  0.000  0.002  0.000  0.000  0.017
    3  0.104  0.000  0.011  0.000  0.000  0.000  0.000  0.000  0.000  0.116
    4  0.290  0.000  0.011  0.000  0.000  0.000  0.001  0.000  0.000  0.302
    5  0.023  0.000  0.000  0.018  0.000  0.000  0.000  0.000  0.000  0.042
    6  0.023  0.014  0.000  0.005  0.000  0.000  0.000  0.000  0.000  0.042
    7  0.023  0.014  0.000  0.005  0.000  0.000  0.000  0.000  0.000  0.042
    8  0.016  0.000  0.000  0.013  0.000  0.000  0.000  0.000  0.000  0.029
    9  0.016  0.010  0.000  0.003  0.000  0.000  0.000  0.000  0.000  0.029
   10  0.016  0.010  0.000  0.003  0.000  0.000  0.000  0.000  0.000  0.029
tot    0.542  0.047  0.023  0.047  0.000  0.000  0.006  0.000  0.000  0.664

band     8 # energy   -9.44510183 # occ.  1.00000000

ion      s     py     pz     px    dxy    dyz    dz2    dxz  x2-y2    tot
    1  0.002  0.000  0.012  0.000  0.000  0.000  0.000  0.000  0.000  0.014
    2  0.002  0.000  0.012  0.000  0.000  0.000  0.000  0.000  0.000  0.014
    3  0.163  0.000  0.010  0.000  0.000  0.000  0.000  0.000  0.000  0.173
    4  0.135  0.000  0.010  0.000  0.000  0.000  0.001  0.000  0.000  0.146
    5  0.010  0.000  0.000  0.019  0.000  0.000  0.000  0.000  0.000  0.029
    6  0.010  0.014  0.000  0.005  0.000  0.000  0.000  0.000  0.000  0.029
    7  0.010  0.014  0.000  0.005  0.000  0.000  0.000  0.000  0.000  0.029
    8  0.014  0.000  0.000  0.051  0.000  0.000  0.000  0.000  0.000  0.065
    9  0.014  0.038  0.000  0.013  0.000  0.000  0.000  0.000  0.000  0.065
   10  0.014  0.038  0.000  0.013  0.000  0.000  0.000  0.000  0.000  0.065
tot    0.374  0.105  0.046  0.105  0.000  0.000  0.001  0.000  0.000  0.630

band     9 # energy   -8.18861998 # occ.  1.00000000

ion      s     py     pz     px    dxy    dyz    dz2    dxz  x2-y2    tot
    1  0.000  0.002  0.000  0.003  0.002  0.025  0.000  0.026  0.003  0.061
    2  0.000  0.003  0.000  0.002  0.002  0.018  0.000  0.033  0.003  0.061
    3  0.000  0.026  0.000  0.019  0.000  0.000  0.000  0.000  0.000  0.044
    4  0.000  0.033  0.000  0.024  0.000  0.000  0.000  0.000  0.000  0.057
    5  0.003  0.012  0.001  0.030  0.000  0.000  0.000  0.000  0.000  0.045
    6  0.006  0.057  0.001  0.011  0.000  0.000  0.000  0.000  0.000  0.075
    7  0.001  0.000  0.000  0.026  0.000  0.000  0.000  0.000  0.000  0.027
    8  0.004  0.015  0.001  0.032  0.000  0.000  0.000  0.000  0.000  0.051
    9  0.009  0.062  0.002  0.012  0.000  0.000  0.000  0.000  0.000  0.085
   10  0.001  0.000  0.000  0.031  0.000  0.000  0.000  0.000  0.000  0.032
tot    0.023  0.209  0.005  0.189  0.004  0.044  0.000  0.059  0.005  0.539

band    10 # energy   -8.18859669 # occ.  1.00000000

ion      s     py     pz     px    dxy    dyz    dz2    dxz  x2-y2    tot
    1  0.000  0.003  0.000  0.002  0.003  0.026  0.000  0.025  0.002  0.061
    2  0.000  0.002  0.000  0.003  0.003  0.033  0.000  0.018  0.002  0.061
    3  0.000  0.019  0.000  0.026  0.000  0.000  0.000  0.000  0.000  0.044
    4  0.000  0.024  0.000  0.033  0.000  0.000  0.000  0.000  0.000  0.057
    5  0.003  0.009  0.001  0.040  0.000  0.000  0.000  0.000  0.000  0.053
    6  0.000  0.001  0.000  0.022  0.000  0.000  0.000  0.000  0.000  0.023
    7  0.005  0.057  0.001  0.007  0.000  0.000  0.000  0.000  0.000  0.071
    8  0.005  0.011  0.001  0.044  0.000  0.000  0.000  0.000  0.000  0.061
    9  0.000  0.001  0.000  0.026  0.000  0.000  0.000  0.000  0.000  0.028
   10  0.008  0.063  0.002  0.007  0.000  0.000  0.000  0.000  0.000  0.080
tot    0.023  0.189  0.005  0.209  0.005  0.059  0.000  0.044  0.004  0.539

band    11 # energy   -8.02449939 # occ.  1.00000000

ion      s     py     pz     px    dxy    dyz    dz2    dxz  x2-y2    tot
    1  0.046  0.000  0.000  0.000  0.000  0.000  0.021  0.000  0.000  0.067
    2  0.046  0.000  0.000  0.000  0.000  0.000  0.021  0.000  0.000  0.067
    3  0.000  0.000  0.035  0.000  0.000  0.000  0.000  0.000  0.000  0.035
    4  0.006  0.000  0.058  0.000  0.000  0.000  0.001  0.000  0.000  0.065
    5  0.002  0.000  0.036  0.009  0.000  0.000  0.000  0.000  0.000  0.047
    6  0.002  0.007  0.036  0.002  0.000  0.000  0.000  0.000  0.000  0.047
    7  0.002  0.007  0.036  0.002  0.000  0.000  0.000  0.000  0.000  0.047
    8  0.005  0.000  0.038  0.003  0.000  0.000  0.000  0.000  0.000  0.046
    9  0.005  0.003  0.038  0.001  0.000  0.000  0.000  0.000  0.000  0.046
   10  0.005  0.003  0.038  0.001  0.000  0.000  0.000  0.000  0.000  0.046
tot    0.119  0.019  0.316  0.019  0.000  0.000  0.043  0.000  0.000  0.516

band    12 # energy   -7.74801108 # occ.  1.00000000

ion      s     py     pz     px    dxy    dyz    dz2    dxz  x2-y2    tot
    1  0.000  0.021  0.000  0.003  0.005  0.002  0.000  0.012  0.011  0.054
    2  0.000  0.018  0.000  0.005  0.001  0.003  0.000  0.012  0.015  0.054
    3  0.000  0.006  0.000  0.029  0.000  0.000  0.000  0.000  0.000  0.035
    4  0.000  0.008  0.000  0.039  0.000  0.000  0.000  0.001  0.000  0.048
    5  0.000  0.004  0.005  0.072  0.000  0.000  0.000  0.000  0.000  0.080
    6  0.000  0.062  0.004  0.002  0.000  0.000  0.000  0.000  0.000  0.068
    7  0.000  0.010  0.000  0.013  0.000  0.000  0.000  0.000  0.000  0.024
    8  0.000  0.004  0.006  0.071  0.000  0.000  0.000  0.000  0.000  0.081
    9  0.000  0.062  0.005  0.002  0.000  0.000  0.000  0.000  0.000  0.069
   10  0.000  0.011  0.000  0.014  0.000  0.000  0.000  0.000  0.000  0.025
tot    0.001  0.206  0.019  0.248  0.006  0.005  0.000  0.025  0.026  0.537

band    13 # energy   -7.74799087 # occ.  1.00000000

ion      s     py     pz     px    dxy    dyz    dz2    dxz  x2-y2    tot
    1  0.000  0.003  0.000  0.021  0.011  0.012  0.000  0.002  0.005  0.054
    2  0.000  0.005  0.000  0.018  0.015  0.012  0.000  0.003  0.001  0.054
    3  0.000  0.029  0.000  0.006  0.000  0.000  0.000  0.000  0.000  0.035
    4  0.000  0.039  0.000  0.008  0.000  0.001  0.000  0.000  0.000  0.048
    5  0.000  0.019  0.001  0.014  0.000  0.000  0.000  0.000  0.000  0.034
    6  0.000  0.008  0.002  0.037  0.000  0.000  0.000  0.000  0.000  0.047
    7  0.000  0.060  0.005  0.026  0.000  0.000  0.000  0.000  0.000  0.091
    8  0.000  0.020  0.001  0.014  0.000  0.000  0.000  0.000  0.000  0.035
    9  0.000  0.007  0.003  0.037  0.000  0.000  0.000  0.000  0.000  0.048
   10  0.001  0.059  0.007  0.025  0.000  0.000  0.000  0.000  0.000  0.092
tot    0.001  0.248  0.019  0.206  0.026  0.025  0.000  0.005  0.006  0.537

band    14 # energy   -7.64381838 # occ.  1.00000000

ion      s     py     pz     px    dxy    dyz    dz2    dxz  x2-y2    tot
    1  0.078  0.000  0.002  0.000  0.000  0.000  0.033  0.000  0.000  0.113
    2  0.078  0.000  0.002  0.000  0.000  0.000  0.033  0.000  0.000  0.113
    3  0.000  0.000  0.000  0.000  0.000  0.000  0.000  0.000  0.000  0.000
    4  0.000  0.000  0.000  0.000  0.000  0.000  0.000  0.000  0.000  0.000
    5  0.000  0.079  0.000  0.000  0.000  0.000  0.000  0.000  0.000  0.079
    6  0.000  0.020  0.000  0.059  0.000  0.000  0.000  0.000  0.000  0.079
    7  0.000  0.020  0.000  0.060  0.000  0.000  0.000  0.000  0.000  0.079
    8  0.000  0.037  0.000  0.000  0.000  0.000  0.000  0.000  0.000  0.037
    9  0.000  0.009  0.000  0.028  0.000  0.000  0.000  0.000  0.000  0.037
   10  0.000  0.009  0.000  0.028  0.000  0.000  0.000  0.000  0.000  0.037
tot    0.156  0.175  0.004  0.175  0.000  0.000  0.066  0.000  0.000  0.575

band    15 # energy   -6.31981235 # occ.  1.00000000

ion      s     py     pz     px    dxy    dyz    dz2    dxz  x2-y2    tot
    1  0.002  0.000  0.052  0.000  0.000  0.000  0.001  0.000  0.000  0.054
    2  0.002  0.000  0.052  0.000  0.000  0.000  0.001  0.000  0.000  0.054
    3  0.000  0.000  0.000  0.000  0.000  0.000  0.000  0.000  0.000  0.000
    4  0.000  0.000  0.000  0.000  0.000  0.000  0.000  0.000  0.000  0.000
    5  0.000  0.051  0.000  0.000  0.000  0.000  0.000  0.000  0.000  0.051
    6  0.000  0.013  0.000  0.038  0.000  0.000  0.000  0.000  0.000  0.051
    7  0.000  0.013  0.000  0.038  0.000  0.000  0.000  0.000  0.000  0.051
    8  0.000  0.094  0.000  0.000  0.000  0.000  0.000  0.000  0.000  0.094
    9  0.000  0.023  0.000  0.070  0.000  0.000  0.000  0.000  0.000  0.094
   10  0.000  0.023  0.000  0.070  0.000  0.000  0.000  0.000  0.000  0.094
tot    0.004  0.217  0.103  0.217  0.000  0.000  0.001  0.000  0.000  0.543

band    16 # energy   -5.87523030 # occ.  1.00000000

ion      s     py     pz     px    dxy    dyz    dz2    dxz  x2-y2    tot
    1  0.000  0.001  0.000  0.000  0.000  0.000  0.000  0.104  0.119  0.224
    2  0.000  0.001  0.000  0.000  0.002  0.000  0.000  0.103  0.117  0.223
    3  0.000  0.000  0.000  0.000  0.000  0.000  0.000  0.000  0.000  0.000
    4  0.000  0.000  0.000  0.000  0.000  0.000  0.000  0.000  0.001  0.001
    5  0.002  0.000  0.034  0.002  0.000  0.000  0.000  0.000  0.000  0.038
    6  0.000  0.007  0.007  0.035  0.000  0.000  0.000  0.000  0.000  0.050
    7  0.000  0.006  0.010  0.033  0.000  0.000  0.000  0.000  0.000  0.049
    8  0.002  0.000  0.043  0.007  0.000  0.000  0.000  0.000  0.000  0.052
    9  0.000  0.005  0.009  0.040  0.000  0.000  0.000  0.000  0.000  0.055
   10  0.001  0.004  0.012  0.038  0.000  0.000  0.000  0.000  0.000  0.055
tot    0.006  0.024  0.116  0.155  0.003  0.000  0.000  0.207  0.237  0.747

band    17 # energy   -5.87521779 # occ.  1.00000000

ion      s     py     pz     px    dxy    dyz    dz2    dxz  x2-y2    tot
    1  0.000  0.000  0.000  0.001  0.119  0.104  0.000  0.000  0.000  0.224
    2  0.000  0.000  0.000  0.001  0.117  0.103  0.000  0.000  0.002  0.223
    3  0.000  0.000  0.000  0.000  0.000  0.000  0.000  0.000  0.000  0.000
    4  0.000  0.000  0.000  0.000  0.001  0.000  0.000  0.000  0.000  0.001
    5  0.000  0.053  0.000  0.000  0.000  0.000  0.000  0.000  0.000  0.053
    6  0.001  0.008  0.027  0.005  0.000  0.000  0.000  0.000  0.000  0.041
    7  0.001  0.010  0.024  0.007  0.000  0.000  0.000  0.000  0.000  0.043
    8  0.000  0.055  0.000  0.000  0.000  0.000  0.000  0.000  0.000  0.055
    9  0.002  0.014  0.034  0.003  0.000  0.000  0.000  0.000  0.000  0.053
   10  0.002  0.015  0.031  0.006  0.000  0.000  0.000  0.000  0.000  0.053
tot    0.006  0.155  0.116  0.024  0.237  0.207  0.000  0.000  0.003  0.747

band    18 # energy   -5.62291125 # occ.  1.00000000

ion      s     py     pz     px    dxy    dyz    dz2    dxz  x2-y2    tot
    1  0.000  0.000  0.000  0.003  0.075  0.063  0.000  0.005  0.018  0.164
    2  0.000  0.001  0.000  0.002  0.092  0.061  0.000  0.007  0.002  0.166
    3  0.000  0.000  0.000  0.000  0.000  0.000  0.000  0.000  0.000  0.000
    4  0.000  0.000  0.000  0.001  0.000  0.000  0.000  0.003  0.000  0.004
    5  0.007  0.000  0.107  0.002  0.000  0.000  0.000  0.000  0.000  0.117
    6  0.004  0.002  0.064  0.000  0.000  0.000  0.000  0.000  0.000  0.070
    7  0.000  0.001  0.006  0.002  0.000  0.000  0.000  0.000  0.000  0.009
    8  0.005  0.000  0.084  0.002  0.000  0.000  0.000  0.000  0.000  0.090
    9  0.003  0.002  0.049  0.000  0.000  0.000  0.000  0.000  0.000  0.054
   10  0.000  0.001  0.005  0.002  0.000  0.000  0.000  0.000  0.000  0.008
tot    0.020  0.008  0.314  0.013  0.168  0.125  0.000  0.016  0.020  0.683

band    19 # energy   -5.62289078 # occ.  1.00000000

ion      s     py     pz     px    dxy    dyz    dz2    dxz  x2-y2    tot
    1  0.000  0.003  0.000  0.000  0.018  0.005  0.000  0.063  0.075  0.164
    2  0.000  0.002  0.000  0.001  0.002  0.007  0.000  0.061  0.092  0.166
    3  0.000  0.000  0.000  0.000  0.000  0.000  0.000  0.000  0.000  0.000
    4  0.000  0.001  0.000  0.000  0.000  0.003  0.000  0.000  0.000  0.004
    5  0.001  0.003  0.010  0.000  0.000  0.000  0.000  0.000  0.000  0.014
    6  0.004  0.000  0.054  0.002  0.000  0.000  0.000  0.000  0.000  0.060
    7  0.007  0.001  0.112  0.001  0.000  0.000  0.000  0.000  0.000  0.122
    8  0.000  0.003  0.008  0.000  0.000  0.000  0.000  0.000  0.000  0.011
    9  0.003  0.000  0.042  0.002  0.000  0.000  0.000  0.000  0.000  0.047
   10  0.005  0.001  0.087  0.001  0.000  0.000  0.000  0.000  0.000  0.094
tot    0.020  0.013  0.314  0.008  0.020  0.016  0.000  0.125  0.168  0.683

band    20 # energy   -4.95971721 # occ.  1.00000000

ion      s     py     pz     px    dxy    dyz    dz2    dxz  x2-y2    tot
    1  0.001  0.000  0.010  0.000  0.000  0.000  0.038  0.000  0.000  0.049
    2  0.001  0.000  0.010  0.000  0.000  0.000  0.039  0.000  0.000  0.050
    3  0.005  0.000  0.035  0.000  0.000  0.000  0.000  0.000  0.000  0.040
    4  0.000  0.000  0.003  0.000  0.000  0.000  0.006  0.000  0.000  0.009
    5  0.000  0.000  0.078  0.003  0.000  0.000  0.000  0.000  0.000  0.081
    6  0.000  0.002  0.078  0.001  0.000  0.000  0.000  0.000  0.000  0.081
    7  0.000  0.002  0.078  0.001  0.000  0.000  0.000  0.000  0.000  0.081
    8  0.000  0.000  0.049  0.002  0.000  0.000  0.000  0.000  0.000  0.051
    9  0.000  0.001  0.049  0.000  0.000  0.000  0.000  0.000  0.000  0.051
   10  0.000  0.001  0.049  0.000  0.000  0.000  0.000  0.000  0.000  0.051
tot    0.007  0.007  0.441  0.007  0.000  0.000  0.084  0.000  0.000  0.545

band    21 # energy   -4.71983881 # occ.  1.00000000

ion      s     py     pz     px    dxy    dyz    dz2    dxz  x2-y2    tot
    1  0.000  0.000  0.003  0.000  0.000  0.000  0.212  0.000  0.000  0.215
    2  0.000  0.000  0.003  0.000  0.000  0.000  0.210  0.000  0.000  0.213
    3  0.004  0.000  0.029  0.000  0.000  0.000  0.000  0.000  0.000  0.033
    4  0.012  0.000  0.088  0.000  0.000  0.000  0.002  0.000  0.000  0.102
    5  0.000  0.000  0.006  0.013  0.000  0.000  0.000  0.000  0.000  0.019
    6  0.000  0.010  0.006  0.003  0.000  0.000  0.000  0.000  0.000  0.019
    7  0.000  0.009  0.006  0.003  0.000  0.000  0.000  0.000  0.000  0.019
    8  0.001  0.000  0.025  0.007  0.000  0.000  0.000  0.000  0.000  0.033
    9  0.001  0.006  0.025  0.002  0.000  0.000  0.000  0.000  0.000  0.033
   10  0.001  0.006  0.025  0.002  0.000  0.000  0.000  0.000  0.000  0.033
tot    0.018  0.030  0.214  0.030  0.000  0.000  0.424  0.000  0.000  0.718

band    22 # energy   -4.71347241 # occ.  1.00000000

ion      s     py     pz     px    dxy    dyz    dz2    dxz  x2-y2    tot
    1  0.000  0.015  0.000  0.001  0.001  0.000  0.000  0.024  0.001  0.042
    2  0.000  0.016  0.000  0.000  0.000  0.002  0.000  0.023  0.001  0.042
    3  0.000  0.000  0.000  0.017  0.000  0.000  0.000  0.000  0.000  0.017
    4  0.000  0.000  0.000  0.012  0.000  0.000  0.000  0.000  0.004  0.016
    5  0.004  0.000  0.086  0.026  0.000  0.000  0.000  0.000  0.000  0.116
    6  0.002  0.002  0.033  0.014  0.000  0.000  0.000  0.000  0.000  0.052
    7  0.001  0.000  0.012  0.012  0.000  0.000  0.000  0.000  0.000  0.025
    8  0.007  0.001  0.107  0.046  0.000  0.000  0.000  0.000  0.000  0.161
    9  0.003  0.002  0.042  0.037  0.000  0.000  0.000  0.000  0.000  0.083
   10  0.001  0.000  0.015  0.035  0.000  0.000  0.000  0.000  0.000  0.052
tot    0.017  0.038  0.296  0.200  0.001  0.002  0.000  0.047  0.006  0.606

band    23 # energy   -4.71346073 # occ.  1.00000000

ion      s     py     pz     px    dxy    dyz    dz2    dxz  x2-y2    tot
    1  0.000  0.001  0.000  0.015  0.001  0.024  0.000  0.000  0.001  0.042
    2  0.000  0.000  0.000  0.016  0.001  0.023  0.000  0.002  0.000  0.042
    3  0.000  0.017  0.000  0.000  0.000  0.000  0.000  0.000  0.000  0.017
    4  0.000  0.012  0.000  0.000  0.004  0.000  0.000  0.000  0.000  0.016
    5  0.000  0.010  0.002  0.001  0.000  0.000  0.000  0.000  0.000  0.012
    6  0.003  0.020  0.054  0.000  0.000  0.000  0.000  0.000  0.000  0.077
    7  0.004  0.022  0.075  0.002  0.000  0.000  0.000  0.000  0.000  0.103
    8  0.000  0.033  0.002  0.001  0.000  0.000  0.000  0.000  0.000  0.036
    9  0.004  0.041  0.068  0.000  0.000  0.000  0.000  0.000  0.000  0.114
   10  0.006  0.043  0.094  0.002  0.000  0.000  0.000  0.000  0.000  0.145
tot    0.017  0.200  0.296  0.038  0.006  0.047  0.000  0.002  0.001  0.606

band    24 # energy   -3.95421642 # occ.  1.00000000

ion      s     py     pz     px    dxy    dyz    dz2    dxz  x2-y2    tot
    1  0.000  0.003  0.000  0.001  0.013  0.004  0.000  0.196  0.206  0.423
    2  0.000  0.003  0.000  0.000  0.037  0.049  0.000  0.148  0.177  0.414
    3  0.000  0.001  0.000  0.005  0.000  0.000  0.000  0.000  0.000  0.006
    4  0.000  0.000  0.000  0.004  0.000  0.000  0.000  0.001  0.000  0.006
    5  0.000  0.000  0.009  0.002  0.000  0.000  0.000  0.000  0.000  0.011
    6  0.000  0.001  0.006  0.000  0.000  0.000  0.000  0.000  0.000  0.007
    7  0.000  0.000  0.000  0.000  0.000  0.000  0.000  0.000  0.000  0.001
    8  0.000  0.000  0.003  0.003  0.000  0.000  0.000  0.000  0.000  0.006
    9  0.000  0.003  0.002  0.000  0.000  0.000  0.000  0.000  0.000  0.005
   10  0.000  0.001  0.000  0.002  0.000  0.000  0.000  0.000  0.000  0.003
tot    0.000  0.014  0.020  0.017  0.050  0.053  0.000  0.344  0.383  0.882

band    25 # energy   -3.95421297 # occ.  1.00000000

ion      s     py     pz     px    dxy    dyz    dz2    dxz  x2-y2    tot
    1  0.000  0.001  0.000  0.003  0.206  0.196  0.000  0.004  0.013  0.423
    2  0.000  0.000  0.000  0.003  0.177  0.148  0.000  0.049  0.037  0.414
    3  0.000  0.005  0.000  0.001  0.000  0.000  0.000  0.000  0.000  0.006
    4  0.000  0.004  0.000  0.000  0.000  0.001  0.000  0.000  0.000  0.006
    5  0.000  0.000  0.001  0.000  0.000  0.000  0.000  0.000  0.000  0.001
    6  0.000  0.001  0.004  0.001  0.000  0.000  0.000  0.000  0.000  0.006
    7  0.000  0.002  0.010  0.001  0.000  0.000  0.000  0.000  0.000  0.012
    8  0.000  0.003  0.000  0.000  0.000  0.000  0.000  0.000  0.000  0.004
    9  0.000  0.000  0.002  0.003  0.000  0.000  0.000  0.000  0.000  0.005
   10  0.000  0.002  0.004  0.001  0.000  0.000  0.000  0.000  0.000  0.007
tot    0.000  0.017  0.020  0.014  0.383  0.344  0.000  0.053  0.050  0.882

band    26 # energy   -3.77713493 # occ.  1.00000000

ion      s     py     pz     px    dxy    dyz    dz2    dxz  x2-y2    tot
    1  0.000  0.001  0.000  0.005  0.100  0.045  0.000  0.053  0.036  0.240
    2  0.000  0.002  0.000  0.004  0.100  0.095  0.000  0.007  0.040  0.248
    3  0.000  0.003  0.000  0.009  0.000  0.000  0.000  0.000  0.000  0.012
    4  0.000  0.008  0.000  0.022  0.001  0.000  0.000  0.000  0.003  0.034
    5  0.003  0.011  0.003  0.038  0.000  0.000  0.000  0.000  0.000  0.055
    6  0.000  0.012  0.000  0.032  0.000  0.000  0.000  0.000  0.000  0.044
    7  0.003  0.015  0.003  0.035  0.000  0.000  0.000  0.000  0.000  0.056
    8  0.002  0.009  0.000  0.026  0.000  0.000  0.000  0.000  0.000  0.038
    9  0.000  0.009  0.000  0.026  0.000  0.000  0.000  0.000  0.000  0.035
   10  0.003  0.009  0.000  0.026  0.000  0.000  0.000  0.000  0.000  0.038
tot    0.012  0.080  0.006  0.222  0.201  0.139  0.000  0.061  0.079  0.800

band    27 # energy   -3.77711410 # occ.  1.00000000

ion      s     py     pz     px    dxy    dyz    dz2    dxz  x2-y2    tot
    1  0.000  0.005  0.000  0.001  0.036  0.054  0.000  0.045  0.100  0.240
    2  0.000  0.004  0.000  0.002  0.040  0.007  0.000  0.095  0.100  0.248
    3  0.000  0.009  0.000  0.003  0.000  0.000  0.000  0.000  0.000  0.012
    4  0.000  0.022  0.000  0.008  0.003  0.000  0.000  0.000  0.001  0.034
    5  0.001  0.032  0.001  0.014  0.000  0.000  0.000  0.000  0.000  0.048
    6  0.004  0.038  0.004  0.013  0.000  0.000  0.000  0.000  0.000  0.060
    7  0.001  0.035  0.001  0.011  0.000  0.000  0.000  0.000  0.000  0.047
    8  0.001  0.026  0.000  0.009  0.000  0.000  0.000  0.000  0.000  0.036
    9  0.003  0.026  0.000  0.009  0.000  0.000  0.000  0.000  0.000  0.039
   10  0.001  0.026  0.000  0.009  0.000  0.000  0.000  0.000  0.000  0.036
tot    0.012  0.222  0.006  0.080  0.079  0.061  0.000  0.139  0.201  0.800

band    28 # energy   -3.66718734 # occ.  1.00000000

ion      s     py     pz     px    dxy    dyz    dz2    dxz  x2-y2    tot
    1  0.014  0.000  0.000  0.000  0.000  0.000  0.433  0.000  0.000  0.448
    2  0.014  0.000  0.000  0.000  0.000  0.000  0.434  0.000  0.000  0.448
    3  0.000  0.000  0.000  0.000  0.000  0.000  0.000  0.000  0.000  0.000
    4  0.000  0.000  0.000  0.000  0.000  0.000  0.000  0.000  0.000  0.000
    5  0.000  0.004  0.000  0.000  0.000  0.000  0.000  0.000  0.000  0.004
    6  0.000  0.001  0.000  0.003  0.000  0.000  0.000  0.000  0.000  0.004
    7  0.000  0.001  0.000  0.003  0.000  0.000  0.000  0.000  0.000  0.004
    8  0.000  0.004  0.000  0.000  0.000  0.000  0.000  0.000  0.000  0.004
    9  0.000  0.001  0.000  0.003  0.000  0.000  0.000  0.000  0.000  0.004
   10  0.000  0.001  0.000  0.003  0.000  0.000  0.000  0.000  0.000  0.004
tot    0.029  0.013  0.000  0.013  0.000  0.000  0.867  0.000  0.000  0.921

band    29 # energy   -3.51660741 # occ.  1.00000000

ion      s     py     pz     px    dxy    dyz    dz2    dxz  x2-y2    tot
    1  0.000  0.000  0.000  0.014  0.152  0.030  0.000  0.001  0.004  0.202
    2  0.000  0.000  0.000  0.014  0.152  0.031  0.000  0.001  0.004  0.202
    3  0.000  0.000  0.000  0.000  0.000  0.000  0.000  0.000  0.000  0.000
    4  0.000  0.000  0.000  0.000  0.000  0.000  0.000  0.000  0.003  0.003
    5  0.000  0.000  0.006  0.014  0.000  0.000  0.000  0.000  0.000  0.020
    6  0.000  0.007  0.001  0.069  0.000  0.000  0.000  0.000  0.000  0.077
    7  0.000  0.007  0.001  0.069  0.000  0.000  0.000  0.000  0.000  0.078
    8  0.000  0.000  0.019  0.019  0.000  0.000  0.000  0.000  0.000  0.038
    9  0.000  0.004  0.005  0.066  0.000  0.000  0.000  0.000  0.000  0.075
   10  0.000  0.005  0.005  0.066  0.000  0.000  0.000  0.000  0.000  0.075
tot    0.000  0.024  0.037  0.332  0.304  0.061  0.000  0.002  0.011  0.770

band    30 # energy   -3.51659608 # occ.  1.00000000

ion      s     py     pz     px    dxy    dyz    dz2    dxz  x2-y2    tot
    1  0.000  0.014  0.000  0.000  0.004  0.001  0.000  0.030  0.152  0.202
    2  0.000  0.014  0.000  0.000  0.004  0.001  0.000  0.031  0.152  0.202
    3  0.000  0.000  0.000  0.000  0.000  0.000  0.000  0.000  0.000  0.000
    4  0.000  0.000  0.000  0.000  0.003  0.000  0.000  0.000  0.000  0.003
    5  0.000  0.097  0.000  0.000  0.000  0.000  0.000  0.000  0.000  0.097
    6  0.000  0.028  0.004  0.007  0.000  0.000  0.000  0.000  0.000  0.039
    7  0.000  0.028  0.004  0.007  0.000  0.000  0.000  0.000  0.000  0.039
    8  0.000  0.087  0.000  0.000  0.000  0.000  0.000  0.000  0.000  0.087
    9  0.000  0.031  0.014  0.005  0.000  0.000  0.000  0.000  0.000  0.050
   10  0.000  0.032  0.014  0.004  0.000  0.000  0.000  0.000  0.000  0.050
tot    0.000  0.332  0.037  0.024  0.011  0.002  0.000  0.061  0.304  0.770

band    31 # energy   -3.17475412 # occ.  1.00000000

ion      s     py     pz     px    dxy    dyz    dz2    dxz  x2-y2    tot
    1  0.011  0.000  0.000  0.000  0.000  0.000  0.174  0.000  0.000  0.184
    2  0.010  0.000  0.000  0.000  0.000  0.000  0.175  0.000  0.000  0.185
    3  0.000  0.000  0.049  0.000  0.000  0.000  0.000  0.000  0.000  0.049
    4  0.001  0.000  0.085  0.000  0.000  0.000  0.006  0.000  0.000  0.092
    5  0.001  0.000  0.020  0.011  0.000  0.000  0.000  0.000  0.000  0.032
    6  0.001  0.008  0.020  0.003  0.000  0.000  0.000  0.000  0.000  0.032
    7  0.001  0.008  0.020  0.003  0.000  0.000  0.000  0.000  0.000  0.032
    8  0.000  0.000  0.027  0.009  0.000  0.000  0.000  0.000  0.000  0.036
    9  0.000  0.007  0.027  0.002  0.000  0.000  0.000  0.000  0.000  0.036