<?xml version="1.0" encoding="ISO-8859-1"?>
<modeling>
 <generator>
  <i name="program" type="string">vasp </i>
  <i name="version" type="string">5.4.4.18Apr17-6-g9f103f2a35  </i>
  <i name="subversion" type="string">(build May  1 2020 15:48:39) complex            parallel </i>
  <i name="platform" type="string">LinuxGNU </i>
  <i name="date" type="string">2020 06 17 </i>
  <i name="time" type="string">12:39:13 </i>
 </generator>
 <incar>
  <i type="int" name="ISTART">     1</i>
  <i type="string" name="PREC">accurate</i>
  <i type="string" name="ALGO"> Normal</i>
  <i type="int" name="ISPIN">     2</i>
  <i name="AMIN">      0.01000000</i>
  <i type="int" name="NELM">   400</i>
  <i type="int" name="IBRION">     2</i>
  <i name="EDIFF">      0.00010000</i>
  <i type="int" name="NSW">    99</i>
  <i type="int" name="ISIF">     3</i>
  <i name="ENCUT">    520.00000000</i>
  <v name="MAGMOM">      5.00000000      5.00000000      0.60000000      0.60000000      0.60000000      0.60000000      0.60000000      0.60000000      0.60000000      0.60000000</v>
  <i type="string" name="LREAL"> Auto</i>
  <i type="int" name="ISMEAR">    -5</i>
  <i name="SIGMA">      0.05000000</i>
  <i type="logical" name="LWAVE"> F  </i>
  <i type="int" name="LORBIT">    11</i>
  <v type="int" name="KPOINT_BSE">    -1     0     0     0</v>
  <i type="int" name="NELM">   400</i>
  <i type="string" name="GGA"> Bo</i>
  <i name="PARAM1">      0.18333333</i>
  <i name="PARAM2">      0.22000000</i>
  <i type="logical" name="LUSE_VDW"> T  </i>
  <i name="AGGAC">      0.00000000</i>
 </incar>
 <structure name="primitive_cell" >
  <crystal>
   <varray name="basis" >
    <v>       6.90777700      -0.00000000       0.00000000 </v>
    <v>       3.45388800       5.98231000       0.00000000 </v>
    <v>       0.00000000       0.00000000      23.44458800 </v>
   </varray>
   <i name="volume">    968.83501932 </i>
   <varray name="rec_basis" >
    <v>       0.14476437      -0.08357974       0.00000000 </v>
    <v>       0.00000000       0.16715951      -0.00000000 </v>
    <v>      -0.00000000       0.00000000       0.04265377 </v>
   </varray>
  </crystal>
  <varray name="positions" >
   <v>       0.33333300       0.33333300       0.49992500 </v>
   <v>       0.00042000       0.37322400      -0.42624800 </v>
   <v>      -0.37364300       0.00042000      -0.42624800 </v>
   <v>       0.37322400      -0.37364300      -0.42624800 </v>
   <v>       0.37364300      -0.00042000       0.42624800 </v>
   <v>      -0.37322400       0.37364300       0.42624800 </v>
   <v>      -0.00042000      -0.37322400       0.42624800 </v>
   <v>      -0.33333300      -0.33333300      -0.49992500 </v>
   <v>       0.00000000       0.00000000       0.44821600 </v>
   <v>       0.00000000       0.00000000      -0.44821600 </v>
  </varray>
 </structure>
 <varray name="primitive_index" >
  <v type="int" >        1 </v>
  <v type="int" >        6 </v>
  <v type="int" >        5 </v>
  <v type="int" >        7 </v>
  <v type="int" >        8 </v>
  <v type="int" >       10 </v>
  <v type="int" >        9 </v>
  <v type="int" >        2 </v>
  <v type="int" >        3 </v>
  <v type="int" >        4 </v>
 </varray>
 <kpoints>
  <generation param="Gamma">
   <v type="int" name="divisions">       5        5        1 </v>
   <v name="usershift">      0.00000000       0.00000000       0.00000000 </v>
   <v name="genvec1">      0.20000000       0.00000000       0.00000000 </v>
   <v name="genvec2">      0.00000000       0.20000000       0.00000000 </v>
   <v name="genvec3">      0.00000000       0.00000000       1.00000000 </v>
   <v name="shift">      0.00000000       0.00000000       0.00000000 </v>
  </generation>
  <varray name="kpointlist" >
   <v>       0.00000000       0.00000000       0.00000000 </v>
   <v>       0.20000000       0.00000000       0.00000000 </v>
   <v>       0.40000000       0.00000000       0.00000000 </v>
   <v>       0.40000000       0.20000000       0.00000000 </v>
   <v>      -0.40000000       0.20000000       0.00000000 </v>
  </varray>
  <varray name="weights" >
   <v>       0.04000000 </v>
   <v>       0.24000000 </v>
   <v>       0.24000000 </v>
   <v>       0.24000000 </v>
   <v>       0.24000000 </v>
  </varray>
  <varray name="tetrahedronlist"  type="int" >
   <v type="int" >        6        1        1        2        2 </v>
   <v type="int" >       12        1        2        2        2 </v>
   <v type="int" >       12        2        2        3        4 </v>
   <v type="int" >       12        2        2        2        4 </v>
   <v type="int" >       12        2        3        3        4 </v>
   <v type="int" >       12        2        3        4        4 </v>
   <v type="int" >        6        2        2        4        4 </v>
   <v type="int" >       12        3        3        3        5 </v>
   <v type="int" >       12        3        3        4        5 </v>
   <v type="int" >       12        3        4        4        5 </v>
   <v type="int" >        6        3        3        5        5 </v>
   <v type="int" >       12        3        4        5        5 </v>
   <v type="int" >        6        4        4        5        5 </v>
   <v type="int" >       12        4        5        5        5 </v>
   <v type="int" >        6        5        5        5        5 </v>
  </varray>
  <i name="volumeweight">      0.00666667 </i>
 </kpoints>
 <parameters>
  <separator name="general" >
   <i type="string" name="SYSTEM">unknown system</i>
   <i type="logical" name="LCOMPAT"> F  </i>
  </separator>
  <separator name="electronic" >
   <i type="string" name="PREC">accura</i>
   <i name="ENMAX">    520.00000000</i>
   <i name="ENAUG">    402.10800000</i>
   <i name="EDIFF">      0.00010000</i>
   <i type="int" name="IALGO">    38</i>
   <i type="int" name="IWAVPR">    11</i>
   <i type="int" name="NBANDS">    48</i>
   <i name="NELECT">     56.00000000</i>
   <i type="int" name="TURBO">     0</i>
   <i type="int" name="IRESTART">     0</i>
   <i type="int" name="NREBOOT">     0</i>
   <i type="int" name="NMIN">     0</i>
   <i name="EREF">      0.00000000</i>
   <separator name="electronic smearing" >
    <i type="int" name="ISMEAR">    -5</i>
    <i name="SIGMA">      0.05000000</i>
    <i name="KSPACING">      0.50000000</i>
    <i type="logical" name="KGAMMA"> T  </i>
   </separator>
   <separator name="electronic projectors" >
    <i type="logical" name="LREAL"> T  </i>
    <v name="ROPT">     -0.00025000     -0.00025000     -0.00025000     -0.00025000</v>
    <i type="int" name="LMAXPAW">  -100</i>
    <i type="int" name="LMAXMIX">     2</i>
    <i type="logical" name="NLSPLINE"> F  </i>
   </separator>
   <separator name="electronic startup" >
    <i type="int" name="ISTART">     0</i>
    <i type="int" name="ICHARG">     2</i>
    <i type="int" name="INIWAV">     1</i>
   </separator>
   <separator name="electronic spin" >
    <i type="int" name="ISPIN">     2</i>
    <i type="logical" name="LNONCOLLINEAR"> F  </i>
    <v name="MAGMOM">      5.00000000      5.00000000      0.60000000      0.60000000      0.60000000      0.60000000      0.60000000      0.60000000      0.60000000      0.60000000</v>
    <i name="NUPDOWN">     -1.00000000</i>
    <i type="logical" name="LSORBIT"> F  </i>
    <v name="SAXIS">      0.00000000      0.00000000      1.00000000</v>
    <i type="logical" name="LSPIRAL"> F  </i>
    <v name="QSPIRAL">      0.00000000      0.00000000      0.00000000</v>
    <i type="logical" name="LZEROZ"> F  </i>
   </separator>
   <separator name="electronic exchange-correlation" >
    <i type="logical" name="LASPH"> F  </i>
    <i type="logical" name="LMETAGGA"> F  </i>
   </separator>
   <separator name="electronic convergence" >
    <i type="int" name="NELM">   400</i>
    <i type="int" name="NELMDL">     0</i>
    <i type="int" name="NELMIN">     2</i>
    <i name="ENINI">    520.00000000</i>
    <separator name="electronic convergence detail" >
     <i type="logical" name="LDIAG"> T  </i>
     <i type="logical" name="LSUBROT"> F  </i>
     <i name="WEIMIN">      0.00100000</i>
     <i name="EBREAK">      0.00000052</i>
     <i name="DEPER">      0.30000000</i>
     <i type="int" name="NRMM">     4</i>
     <i name="TIME">      0.40000000</i>
    </separator>
   </separator>
   <separator name="electronic mixer" >
    <i name="AMIX">      0.40000000</i>
    <i name="BMIX">      1.00000000</i>
    <i name="AMIN">      0.01000000</i>
    <i name="AMIX_MAG">      1.60000000</i>
    <i name="BMIX_MAG">      1.00000000</i>
    <separator name="electronic mixer details" >
     <i type="int" name="IMIX">     4</i>
     <i type="logical" name="MIXFIRST"> F  </i>
     <i type="int" name="MAXMIX">   -45</i>
     <i name="WC">    100.00000000</i>
     <i type="int" name="INIMIX">     1</i>
     <i type="int" name="MIXPRE">     1</i>
     <i type="int" name="MREMOVE">     5</i>
    </separator>
   </separator>
   <separator name="electronic dipolcorrection" >
    <i type="logical" name="LDIPOL"> F  </i>
    <i type="logical" name="LMONO"> F  </i>
    <i type="int" name="IDIPOL">     0</i>
    <i name="EPSILON">      1.00000000</i>
    <v name="DIPOL">   -100.00000000   -100.00000000   -100.00000000</v>
    <i name="EFIELD">      0.00000000</i>
   </separator>
  </separator>
  <separator name="grids" >
   <i type="int" name="NGX">    54</i>
   <i type="int" name="NGY">    54</i>
   <i type="int" name="NGZ">   180</i>
   <i type="int" name="NGXF">   108</i>
   <i type="int" name="NGYF">   108</i>
   <i type="int" name="NGZF">   360</i>
   <i type="logical" name="ADDGRID"> F  </i>
  </separator>
  <separator name="ionic" >
   <i type="int" name="NSW">    99</i>
   <i type="int" name="IBRION">     2</i>
   <i type="int" name="MDALGO">     0</i>
   <i type="int" name="ISIF">     3</i>
   <i name="PSTRESS">      0.00000000</i>
   <i name="EDIFFG">      0.00100000</i>
   <i type="int" name="NFREE">     1</i>
   <i name="POTIM">      0.50000000</i>
   <i name="SMASS">     -3.00000000</i>
   <i name="SCALEE">      1.00000000</i>
  </separator>
  <separator name="ionic md" >
   <i name="TEBEG">      0.00010000</i>
   <i name="TEEND">      0.00010000</i>
   <i type="int" name="NBLOCK">     1</i>
   <i type="int" name="KBLOCK">    99</i>
   <i type="int" name="NPACO">   256</i>
   <i name="APACO">     16.00000000</i>
  </separator>
  <separator name="symmetry" >
   <i type="int" name="ISYM">     2</i>
   <i name="SYMPREC">      0.00001000</i>
  </separator>
  <separator name="dos" >
   <i type="int" name="LORBIT">    11</i>
   <v name="RWIGS">     -1.00000000     -1.00000000     -1.00000000     -1.00000000</v>
   <i type="int" name="NEDOS">   301</i>
   <i name="EMIN">     10.00000000</i>
   <i name="EMAX">    -10.00000000</i>
   <i name="EFERMI">      0.00000000</i>
  </separator>
  <separator name="writing" >
   <i type="int" name="NWRITE">     2</i>
   <i type="logical" name="LWAVE"> F  </i>
   <i type="logical" name="LDOWNSAMPLE"> F  </i>
   <i type="logical" name="LCHARG"> T  </i>
   <i type="logical" name="LPARD"> F  </i>
   <i type="logical" name="LVTOT"> F  </i>
   <i type="logical" name="LVHAR"> F  </i>
   <i type="logical" name="LELF"> F  </i>
   <i type="logical" name="LOPTICS"> F  </i>
   <v name="STM">      0.00000000      0.00000000      0.00000000      0.00000000      0.00000000      0.00000000      0.00000000</v>
  </separator>
  <separator name="performance" >
   <i type="int" name="NPAR">    16</i>
   <i type="int" name="NSIM">     4</i>
   <i type="int" name="NBLK">    -1</i>
   <i type="logical" name="LPLANE"> T  </i>
   <i type="logical" name="LSCALAPACK"> T  </i>
   <i type="logical" name="LSCAAWARE"> F  </i>
   <i type="logical" name="LSCALU"> F  </i>
   <i type="logical" name="LASYNC"> F  </i>
   <i type="logical" name="LORBITALREAL"> F  </i>
  </separator>
  <separator name="miscellaneous" >
   <i type="int" name="IDIOT">     3</i>
   <i type="int" name="ISPECIAL">     0</i>
   <i type="logical" name="LMUSIC"> F  </i>
   <v name="POMASS">     51.99600000     28.08500000     72.61000000     32.06600000</v>
   <v name="DARWINR">      0.00000000      0.00000000      0.00000000      0.00000000</v>
   <v name="DARWINV">      1.00000000      1.00000000      1.00000000      1.00000000</v>
   <i type="logical" name="LCORR"> T  </i>
  </separator>
  <i type="logical" name="GGA_COMPAT"> T  </i>
  <i type="logical" name="LBERRY"> F  </i>
  <i type="int" name="ICORELEVEL">     0</i>
  <i type="logical" name="LDAU"> F  </i>
  <i type="int" name="I_CONSTRAINED_M">     0</i>
  <separator name="electronic exchange-correlation" >
   <i type="string" name="GGA">BO</i>
   <i type="int" name="VOSKOWN">     0</i>
   <i type="logical" name="LHFCALC"> F  </i>
   <i type="string" name="PRECFOCK"></i>
   <i type="logical" name="LSYMGRAD"> F  </i>
   <i type="logical" name="LHFONE"> F  </i>
   <i type="logical" name="LRHFCALC"> F  </i>
   <i type="logical" name="LTHOMAS"> F  </i>
   <i type="logical" name="LMODELHF"> F  </i>
   <i name="ENCUT4O">     -1.00000000</i>
   <i type="int" name="EXXOEP">     0</i>
   <i type="int" name="FOURORBIT">     0</i>
   <i name="AEXX">      0.00000000</i>
   <i name="HFALPHA">      0.00000000</i>
   <i name="MCALPHA">      0.00000000</i>
   <i name="ALDAX">      1.00000000</i>
   <i name="AGGAX">      1.00000000</i>
   <i name="ALDAC">      1.00000000</i>
   <i name="AGGAC">      0.00000000</i>
   <i type="int" name="NKREDX">     1</i>
   <i type="int" name="NKREDY">     1</i>
   <i type="int" name="NKREDZ">     1</i>
   <i type="logical" name="SHIFTRED"> F  </i>
   <i type="logical" name="ODDONLY"> F  </i>
   <i type="logical" name="EVENONLY"> F  </i>
   <i type="int" name="LMAXFOCK">     0</i>
   <i type="int" name="NMAXFOCKAE">     0</i>
   <i type="logical" name="LFOCKAEDFT"> F  </i>
   <i name="HFSCREEN">      0.00000000</i>
   <i name="HFSCREENC">      0.00000000</i>
   <i type="int" name="NBANDSGWLOW">     0</i>
  </separator>
  <separator name="vdW DFT" >
   <i type="logical" name="LUSE_VDW"> T  </i>
   <i name="Zab_VDW">     -0.84910000</i>
   <i name="PARAM1">      0.18333333</i>
   <i name="PARAM2">      0.22000000</i>
   <i name="PARAM3">      0.00000000</i>
  </separator>
  <separator name="model GW" >
   <i type="int" name="MODEL_GW">     0</i>
   <i name="MODEL_EPS0">     58.13010116</i>
   <i name="MODEL_ALPHA">      1.00000000</i>
  </separator>
  <separator name="linear response parameters" >
   <i type="logical" name="LEPSILON"> F  </i>
   <i type="logical" name="LRPA"> F  </i>
   <i type="logical" name="LNABLA"> F  </i>
   <i type="logical" name="LVEL"> F  </i>
   <i type="int" name="KINTER">     0</i>
   <i name="CSHIFT">      0.10000000</i>
   <i name="OMEGAMAX">     -1.00000000</i>
   <i name="DEG_THRESHOLD">      0.00200000</i>
   <i name="RTIME">     -0.10000000</i>
   <i name="WPLASMAI">      0.00000000</i>
   <v name="DFIELD">      0.00000000      0.00000000      0.00000000</v>
   <v name="WPLASMA">      0.00000000      0.00000000      0.00000000      0.00000000      0.00000000      0.00000000      0.00000000      0.00000000      0.00000000</v>
  </separator>
  <separator name="orbital magnetization" >
   <i type="logical" name="NUCIND"> F  </i>
   <v name="MAGPOS">      0.00000000      0.00000000      0.00000000</v>
   <i type="logical" name="LNICSALL"> T  </i>
   <i type="logical" name="ORBITALMAG"> F  </i>
   <i type="logical" name="LMAGBLOCH"> F  </i>
   <i type="logical" name="LCHIMAG"> F  </i>
   <i type="logical" name="LGAUGE"> T  </i>
   <i type="int" name="MAGATOM">     0</i>
   <v name="MAGDIPOL">      0.00000000      0.00000000      0.00000000</v>
   <v name="AVECCONST">      0.00000000      0.00000000      0.00000000</v>
  </separator>
  <separator name="response functions" >
   <i type="logical" name="LADDER"> F  </i>
   <i type="logical" name="LRPAFORCE"> F  </i>
   <i type="logical" name="LFXC"> F  </i>
   <i type="logical" name="LHARTREE"> T  </i>
   <i type="int" name="IBSE">     0</i>
   <v type="int" name="KPOINT">    -1     0     0     0</v>
   <i type="logical" name="LTCTE"> F  </i>
   <i type="logical" name="LTETE"> F  </i>
   <i type="logical" name="LTRIPLET"> F  </i>
   <i type="logical" name="LFXCEPS"> F  </i>
   <i type="logical" name="LFXHEG"> F  </i>
   <i type="int" name="NATURALO">     2</i>
   <i type="logical" name="L2ORDER"> F  </i>
   <i type="logical" name="LMP2LT"> F  </i>
   <i type="logical" name="LUSEW"> F  </i>
   <i name="ENCUTGW">     -2.00000000</i>
   <i name="ENCUTGWSOFT">     -2.00000000</i>
   <i name="ENCUTLF">     -1.00000000</i>
   <i type="int" name="LMAXMP2">    -1</i>
   <i name="SCISSOR">      0.00000000</i>
   <i type="int" name="NOMEGA">     0</i>
   <i type="int" name="NOMEGAR">     0</i>
   <i type="int" name="NBANDSGW">    -1</i>
   <i type="int" name="NBANDSO">    -1</i>
   <i type="int" name="NBANDSV">    -1</i>
   <i type="int" name="NELM">   400</i>
   <i type="int" name="NELMHF">     1</i>
   <i type="int" name="DIM">     3</i>
   <i type="int" name="ANTIRES">     0</i>
   <i name="OMEGAMAX">    -30.00000000</i>
   <i name="OMEGAMIN">    -30.00000000</i>
   <i name="OMEGATL">   -200.00000000</i>
   <i type="int" name="OMEGAGRID">   140</i>
   <i name="CSHIFT">     -0.10000000</i>
   <i type="logical" name="SELFENERGY"> F  </i>
   <i type="logical" name="LSPECTRAL"> F  </i>
   <i type="logical" name="LSPECTRALGW"> F  </i>
   <i type="logical" name="LSINGLES"> F  </i>
   <i type="logical" name="LFERMIGW"> F  </i>
   <i type="logical" name="ODDONLYGW"> F  </i>
   <i type="logical" name="EVENONLYGW"> F  </i>
   <i type="int" name="NKREDLFX">     1</i>
   <i type="int" name="NKREDLFY">     1</i>
   <i type="int" name="NKREDLFZ">     1</i>
   <i type="int" name="MAXMEM">  2800</i>
   <i type="int" name="TELESCOPE">     0</i>
   <i type="int" name="TAUPAR">     1</i>
   <i type="int" name="OMEGAPAR">    -1</i>
   <i name="LAMBDA">      1.00000000</i>
  </separator>
  <separator name="External order field" >
   <i name="OFIELD_KAPPA">      0.00000000</i>
   <v name="OFIELD_K">      0.00000000      0.00000000      0.00000000</v>
   <i name="OFIELD_Q6_NEAR">      0.00000000</i>
   <i name="OFIELD_Q6_FAR">      0.00000000</i>
   <i name="OFIELD_A">      0.00000000</i>
  </separator>
 </parameters>
 <atominfo>
  <atoms>      10 </atoms>
  <types>       4 </types>
  <array name="atoms" >
   <dimension dim="1">ion</dimension>
   <field type="string">element</field>
   <field type="int">atomtype</field>
   <set>
    <rc><c>Cr</c><c>   1</c></rc>
    <rc><c>Cr</c><c>   1</c></rc>
    <rc><c>Si</c><c>   2</c></rc>
    <rc><c>Ge</c><c>   3</c></rc>
    <rc><c>S </c><c>   4</c></rc>
    <rc><c>S </c><c>   4</c></rc>
    <rc><c>S </c><c>   4</c></rc>
    <rc><c>S </c><c>   4</c></rc>
    <rc><c>S </c><c>   4</c></rc>
    <rc><c>S </c><c>   4</c></rc>
   </set>
  </array>
  <array name="atomtypes" >
   <dimension dim="1">type</dimension>
   <field type="int">atomspertype</field>
   <field type="string">element</field>
   <field>mass</field>
   <field>valence</field>
   <field type="string">pseudopotential</field>
   <set>
    <rc><c>   2</c><c>Cr</c><c>     51.99600000</c><c>      6.00000000</c><c> PAW_PBE Cr 06Sep2000                   </c></rc>
    <rc><c>   1</c><c>Si</c><c>     28.08500000</c><c>      4.00000000</c><c> PAW_PBE Si 05Jan2001                   </c></rc>
    <rc><c>   1</c><c>Ge</c><c>     72.61000000</c><c>      4.00000000</c><c> PAW_PBE Ge 05Jan2001                   </c></rc>
    <rc><c>   6</c><c>S </c><c>     32.06600000</c><c>      6.00000000</c><c>  PAW_PBE S 17Jan2003                   </c></rc>
   </set>
  </array>
 </atominfo>
 <structure name="initialpos" >
  <crystal>
   <varray name="basis" >
    <v>       6.90777700      -0.00000000       0.00000000 </v>
    <v>       3.45388800       5.98231000       0.00000000 </v>
    <v>       0.00000000       0.00000000      23.44458800 </v>
   </varray>
   <i name="volume">    968.83501932 </i>
   <varray name="rec_basis" >
    <v>       0.14476437      -0.08357974       0.00000000 </v>
    <v>       0.00000000       0.16715951      -0.00000000 </v>
    <v>      -0.00000000       0.00000000       0.04265377 </v>
   </varray>
  </crystal>
  <varray name="positions" >
   <v>       0.33333300       0.33333300       0.49992500 </v>
   <v>       0.66666700       0.66666700       0.50007500 </v>
   <v>       0.00000000       0.00000000       0.44821600 </v>
   <v>       0.00000000       0.00000000       0.55178400 </v>
   <v>       0.62635700       0.00042000       0.57375200 </v>
   <v>       0.00042000       0.37322400       0.57375200 </v>
   <v>       0.37322400       0.62635700       0.57375200 </v>
   <v>       0.37364300       0.99958000       0.42624800 </v>
   <v>       0.99958000       0.62677600       0.42624800 </v>
   <v>       0.62677600       0.37364300       0.42624800 </v>
  </varray>
  <varray name="selective"  type="logical" >
   <v type="logical" >  F  F  F </v>
   <v type="logical" >  F  F  F </v>
   <v type="logical" >  T  T  T </v>
   <v type="logical" >  F  F  F </v>
   <v type="logical" >  T  T  T </v>
   <v type="logical" >  T  T  T </v>
   <v type="logical" >  T  T  T </v>
   <v type="logical" >  T  T  T </v>
   <v type="logical" >  T  T  T </v>
   <v type="logical" >  T  T  T </v>
  </varray>
  <nose>
   <v>      -3.00000000       0.00000000       0.00010000       0.00010000 </v>
  </nose>
 </structure>
 <calculation>
  <scstep>
   <time name="dav">   21.66   22.53</time>
   <time name="total">   74.16   75.21</time>
   <energy>
    <i name="alphaZ">     19.93249583 </i>
    <i name="ewald">   5985.89955237 </i>
    <i name="hartreedc">  -8126.32762610 </i>
    <i name="XCdc">     12.93969993 </i>
    <i name="pawpsdc">   1117.92696054 </i>
    <i name="pawaedc">  -1021.32800935 </i>
    <i name="eentropy">      0.00000000 </i>
    <i name="bandstr">    -23.42225151 </i>
    <i name="atom">   2432.58897501 </i>
    <i name="e_fr_energy">    398.20979673 </i>
    <i name="e_wo_entrp">    398.20979673 </i>
    <i name="e_0_energy">    398.20979673 </i>
   </energy>
  </scstep>
  <scstep>
   <time name="dav">   26.51   26.61</time>
   <time name="total">   26.52   26.62</time>
   <energy>
    <i name="e_fr_energy">     34.40748952 </i>
    <i name="e_wo_entrp">     34.40748952 </i>
    <i name="e_0_energy">     34.40748952 </i>
   </energy>
  </scstep>
  <scstep>
   <time name="dav">   32.01   32.11</time>
   <time name="total">   32.02   32.12</time>
   <energy>
    <i name="e_fr_energy">    -50.44321614 </i>
    <i name="e_wo_entrp">    -50.44321614 </i>
    <i name="e_0_energy">    -50.44321614 </i>
   </energy>
  </scstep>
  <scstep>
   <time name="dav">   29.23   29.36</time>
   <time name="total">   29.23   29.37</time>
   <energy>
    <i name="e_fr_energy">    -55.49897348 </i>
    <i name="e_wo_entrp">    -55.49897348 </i>
    <i name="e_0_energy">    -55.49897348 </i>
   </energy>
  </scstep>
  <scstep>
   <time name="dav">   29.74   29.91</time>
   <time name="total">   31.71   31.89</time>
   <energy>
    <i name="e_fr_energy">    -55.64033234 </i>
    <i name="e_wo_entrp">    -55.64033234 </i>
    <i name="e_0_energy">    -55.64033234 </i>
   </energy>
  </scstep>
  <scstep>
   <time name="dav">   29.15   29.44</time>
   <time name="total">   83.21   83.80</time>
   <energy>
    <i name="e_fr_energy">   -118.33745753 </i>
    <i name="e_wo_entrp">   -118.33745753 </i>
    <i name="e_0_energy">   -118.33745753 </i>
   </energy>
  </scstep>
  <scstep>
   <time name="dav">   26.69   26.73</time>
   <time name="total">   80.93   81.28</time>
   <energy>
    <i name="e_fr_energy">    -43.01846570 </i>
    <i name="e_wo_entrp">    -43.01846570 </i>
    <i name="e_0_energy">    -43.01846570 </i>
   </energy>
  </scstep>
  <scstep>
   <time name="dav">   32.40   33.33</time>
   <time name="total">   86.10   87.37</time>
   <energy>
    <i name="e_fr_energy">    -45.30331689 </i>
    <i name="e_wo_entrp">    -45.30331689 </i>
    <i name="e_0_energy">    -45.30331689 </i>
   </energy>
  </scstep>
  <scstep>
   <time name="dav">   32.84   33.03</time>
   <time name="total">   85.82   86.74</time>
   <energy>
    <i name="e_fr_energy">    -46.50693991 </i>
    <i name="e_wo_entrp">    -46.50693991 </i>
    <i name="e_0_energy">    -46.50693991 </i>
   </energy>
  </scstep>
  <scstep>
   <time name="dav">   33.96   34.20</time>
   <time name="total">   86.89   87.22</time>
   <energy>
    <i name="e_fr_energy">    -47.58061861 </i>
    <i name="e_wo_entrp">    -47.58061861 </i>
    <i name="e_0_energy">    -47.58061861 </i>
   </energy>
  </scstep>
  <scstep>
   <time name="dav">   29.39   29.53</time>
   <time name="total">   82.25   82.67</time>
   <energy>
    <i name="e_fr_energy">    -47.91240629 </i>
    <i name="e_wo_entrp">    -47.91240629 </i>
    <i name="e_0_energy">    -47.91240629 </i>
   </energy>
  </scstep>
  <scstep>
   <time name="dav">   30.50   30.79</time>
   <time name="total">   83.40   83.85</time>
   <energy>
    <i name="e_fr_energy">    -48.00833480 </i>
    <i name="e_wo_entrp">    -48.00833480 </i>
    <i name="e_0_energy">    -48.00833480 </i>
   </energy>
  </scstep>
  <scstep>
   <time name="dav">   28.46   28.55</time>
   <time name="total">   81.48   81.90</time>
   <energy>
    <i name="e_fr_energy">    -48.22825662 </i>
    <i name="e_wo_entrp">    -48.22825662 </i>
    <i name="e_0_energy">    -48.22825662 </i>
   </energy>
  </scstep>
  <scstep>
   <time name="dav">   27.17   27.23</time>
   <time name="total">   80.14   80.27</time>
   <energy>
    <i name="e_fr_energy">    -48.44210517 </i>
    <i name="e_wo_entrp">    -48.44210517 </i>
    <i name="e_0_energy">    -48.44210517 </i>
   </energy>
  </scstep>
  <scstep>
   <time name="dav">   28.16   28.20</time>
   <time name="total">   81.09   81.28</time>
   <energy>
    <i name="e_fr_energy">    -48.47220036 </i>
    <i name="e_wo_entrp">    -48.47220036 </i>
    <i name="e_0_energy">    -48.47220036 </i>
   </energy>
  </scstep>
  <scstep>
   <time name="dav">   32.02   32.13</time>
   <time name="total">   85.12   85.26</time>
   <energy>
    <i name="e_fr_energy">    -48.47369600 </i>
    <i name="e_wo_entrp">    -48.47369600 </i>
    <i name="e_0_energy">    -48.47369600 </i>
   </energy>
  </scstep>
  <scstep>
   <time name="dav">   28.80   28.98</time>
   <time name="total">   81.79   82.02</time>
   <energy>
    <i name="e_fr_energy">    -48.47384891 </i>
    <i name="e_wo_entrp">    -48.47384891 </i>
    <i name="e_0_energy">    -48.47384891 </i>
   </energy>
  </scstep>
  <scstep>
   <time name="dav">   24.27   24.51</time>
   <time name="total">   75.27   75.64</time>
   <energy>
    <i name="alphaZ">     19.93249583 </i>
    <i name="ewald">   5985.89955237 </i>
    <i name="hartreedc">  -8125.19522980 </i>
    <i name="XCdc">     13.39130124 </i>
    <i name="pawpsdc">   1115.71346435 </i>
    <i name="pawaedc">  -1019.27300998 </i>
    <i name="eentropy">      0.00000000 </i>
    <i name="bandstr">   -471.53144523 </i>
    <i name="atom">   2432.58897501 </i>
    <i name="e_fr_energy">    -48.47389620 </i>
    <i name="e_wo_entrp">    -48.47389620 </i>
    <i name="e_0_energy">    -48.47389620 </i>
   </energy>
  </scstep>
  <structure>
   <crystal>
    <varray name="basis" >
     <v>       6.90777700      -0.00000000       0.00000000 </v>
     <v>       3.45388800       5.98231000       0.00000000 </v>
     <v>       0.00000000       0.00000000      23.44458800 </v>
    </varray>
    <i name="volume">    968.83501932 </i>
    <varray name="rec_basis" >
     <v>       0.14476437      -0.08357974       0.00000000 </v>
     <v>       0.00000000       0.16715951      -0.00000000 </v>
     <v>      -0.00000000       0.00000000       0.04265377 </v>
    </varray>
   </crystal>
   <varray name="positions" >
    <v>       0.33333300       0.33333300       0.49992500 </v>
    <v>       0.66666700       0.66666700       0.50007500 </v>
    <v>       0.00000000       0.00000000       0.44821600 </v>
    <v>       0.00000000       0.00000000       0.55178400 </v>
    <v>       0.62635700       0.00042000       0.57375200 </v>
    <v>       0.00042000       0.37322400       0.57375200 </v>
    <v>       0.37322400       0.62635700       0.57375200 </v>
    <v>       0.37364300       0.99958000       0.42624800 </v>
    <v>       0.99958000       0.62677600       0.42624800 </v>
    <v>       0.62677600       0.37364300       0.42624800 </v>
   </varray>
  </structure>
  <varray name="forces" >
   <v>       0.00000000       0.00000000       0.06008925 </v>
   <v>       0.00000000       0.00000000       0.04214443 </v>
   <v>       0.00000000       0.00000000      -0.66278188 </v>
   <v>       0.00000000       0.00000000       0.37124481 </v>
   <v>       0.92749398      -0.00424030      -1.60592491 </v>
   <v>      -0.46741913      -0.80111315      -1.60592491 </v>
   <v>      -0.46007485       0.80535345      -1.60592491 </v>
   <v>      -1.42229599       0.00564520       1.66902604 </v>
   <v>       0.71603678       1.22892178       1.66902604 </v>
   <v>       0.70625921      -1.23456698       1.66902604 </v>
  </varray>
  <varray name="stress" >
   <v>     -47.78267962       0.00000359      -0.00000000 </v>
   <v>       0.00000440     -47.78267377      -0.00000000 </v>
   <v>      -0.00000000      -0.00000000     -26.30614905 </v>
  </varray>
  <energy>
   <i name="e_fr_energy">    -48.47389620 </i>
   <i name="e_wo_entrp">    -48.47389620 </i>
   <i name="e_0_energy">      0.00000000 </i>
  </energy>
  <time name="totalsc"> 1414.93 1423.39</time>
 </calculation>
 <calculation>
  <scstep>
   <time name="dav">   29.52   29.74</time>
   <time name="total">   83.32   83.75</time>
   <energy>
    <i name="alphaZ">     29.14931736 </i>
    <i name="ewald">   7900.70045043 </i>
    <i name="hartreedc"> -10275.52212061 </i>
    <i name="XCdc">     30.36986151 </i>
    <i name="pawpsdc">   1115.77050655 </i>
    <i name="pawaedc">  -1019.33289892 </i>
    <i name="eentropy">      0.00000000 </i>
    <i name="bandstr">   -292.78817257 </i>
    <i name="atom">   2432.58897501 </i>
    <i name="e_fr_energy">    -79.06408125 </i>
    <i name="e_wo_entrp">    -79.06408125 </i>
    <i name="e_0_energy">    -79.06408125 </i>
   </energy>
  </scstep>
  <scstep>
   <time name="dav">   31.99   32.17</time>
   <time name="total">   85.67   86.18</time>
   <energy>
    <i name="e_fr_energy">    -60.98135673 </i>
    <i name="e_wo_entrp">    -60.98135673 </i>
    <i name="e_0_energy">    -60.98135673 </i>
   </energy>
  </scstep>
  <scstep>
   <time name="dav">   33.13   33.32</time>
   <time name="total">   86.78   87.33</time>
   <energy>
    <i name="e_fr_energy">    -61.27911326 </i>
    <i name="e_wo_entrp">    -61.27911326 </i>
    <i name="e_0_energy">    -61.27911326 </i>
   </energy>
  </scstep>
  <scstep>
   <time name="dav">   32.29   32.45</time>
   <time name="total">   86.68   87.01</time>
   <energy>
    <i name="e_fr_energy">    -54.60533451 </i>
    <i name="e_wo_entrp">    -54.60533451 </i>
    <i name="e_0_energy">    -54.60533451 </i>
   </energy>
  </scstep>
  <scstep>
   <time name="dav">   31.08   31.13</time>
   <time name="total">   85.04   85.30</time>
   <energy>
    <i name="e_fr_energy">    -54.97142783 </i>
    <i name="e_wo_entrp">    -54.97142783 </i>
    <i name="e_0_energy">    -54.97142783 </i>
   </energy>
  </scstep>
  <scstep>
   <time name="dav">   33.38   33.68</time>
   <time name="total">   87.50   87.94</time>
   <energy>
    <i name="e_fr_energy">    -54.90038354 </i>
    <i name="e_wo_entrp">    -54.90038354 </i>
    <i name="e_0_energy">    -54.90038354 </i>
   </energy>
  </scstep>
  <scstep>
   <time name="dav">   30.47   30.99</time>
   <time name="total">   85.14   86.03</time>
   <energy>
    <i name="e_fr_energy">    -54.90345570 </i>
    <i name="e_wo_entrp">    -54.90345570 </i>
    <i name="e_0_energy">    -54.90345570 </i>
   </energy>
  </scstep>
  <scstep>
   <time name="dav">   34.80   34.98</time>
   <time name="total">   88.74   89.24</time>
   <energy>
    <i name="e_fr_energy">    -54.89589859 </i>
    <i name="e_wo_entrp">    -54.89589859 </i>
    <i name="e_0_energy">    -54.89589859 </i>
   </energy>
  </scstep>
  <scstep>
   <time name="dav">   32.53   32.63</time>
   <time name="total">   86.72   86.95</time>
   <energy>
    <i name="e_fr_energy">    -54.89540873 </i>
    <i name="e_wo_entrp">    -54.89540873 </i>
    <i name="e_0_energy">    -54.89540873 </i>
   </energy>
  </scstep>
  <scstep>
   <time name="dav">   30.32   30.54</time>
   <time name="total">   84.32   84.63</time>
   <energy>
    <i name="e_fr_energy">    -54.89613848 </i>
    <i name="e_wo_entrp">    -54.89613848 </i>
    <i name="e_0_energy">    -54.89613848 </i>
   </energy>
  </scstep>
  <scstep>
   <time name="dav">   26.98   27.10</time>
   <time name="total">   80.70   81.25</time>
   <energy>
    <i name="e_fr_energy">    -54.89621781 </i>
    <i name="e_wo_entrp">    -54.89621781 </i>
    <i name="e_0_energy">    -54.89621781 </i>
   </energy>
  </scstep>
  <scstep>
   <time name="dav">   24.48   24.63</time>
   <time name="total">   78.28   78.92</time>
   <energy>
    <i name="e_fr_energy">    -54.89640361 </i>
    <i name="e_wo_entrp">    -54.89640361 </i>
    <i name="e_0_energy">    -54.89640361 </i>
   </energy>
  </scstep>
  <scstep>
   <time name="dav">   27.03   27.05</time>
   <time name="total">   81.56   81.76</time>
   <energy>
    <i name="e_fr_energy">    -54.89498809 </i>
    <i name="e_wo_entrp">    -54.89498809 </i>
    <i name="e_0_energy">    -54.89498809 </i>
   </energy>
  </scstep>
  <scstep>
   <time name="dav">   27.12   27.31</time>
   <time name="total">   81.40   81.82</time>
   <energy>
    <i name="e_fr_energy">    -54.89313754 </i>
    <i name="e_wo_entrp">    -54.89313754 </i>
    <i name="e_0_energy">    -54.89313754 </i>
   </energy>
  </scstep>
  <scstep>
   <time name="dav">   23.79   23.88</time>
   <time name="total">   77.85   78.03</time>
   <energy>
    <i name="e_fr_energy">    -54.89183851 </i>
    <i name="e_wo_entrp">    -54.89183851 </i>
    <i name="e_0_energy">    -54.89183851 </i>
   </energy>
  </scstep>
  <scstep>
   <time name="dav">   22.97   23.11</time>
   <time name="total">   76.94   77.26</time>
   <energy>
    <i name="e_fr_energy">    -54.89082132 </i>
    <i name="e_wo_entrp">    -54.89082132 </i>
    <i name="e_0_energy">    -54.89082132 </i>
   </energy>
  </scstep>
  <scstep>
   <time name="dav">   21.63   21.70</time>
   <time name="total">   75.70   76.02</time>
   <energy>
    <i name="e_fr_energy">    -54.88923250 </i>
    <i name="e_wo_entrp">    -54.88923250 </i>
    <i name="e_0_energy">    -54.88923250 </i>
   </energy>
  </scstep>
  <scstep>
   <time name="dav">   22.64   22.79</time>
   <time name="total">   76.81   77.24</time>
   <energy>
    <i name="e_fr_energy">    -54.88890122 </i>
    <i name="e_wo_entrp">    -54.88890122 </i>
    <i name="e_0_energy">    -54.88890122 </i>
   </energy>
  </scstep>
  <scstep>
   <time name="dav">   23.66   23.90</time>
   <time name="total">   77.77   78.25</time>
   <energy>
    <i name="e_fr_energy">    -54.88869503 </i>
    <i name="e_wo_entrp">    -54.88869503 </i>
    <i name="e_0_energy">    -54.88869503 </i>
   </energy>
  </scstep>
  <scstep>
   <time name="dav">   22.80   22.86</time>
   <time name="total">   76.87   77.04</time>
   <energy>
    <i name="e_fr_energy">    -54.88881193 </i>
    <i name="e_wo_entrp">    -54.88881193 </i>
    <i name="e_0_energy">    -54.88881193 </i>
   </energy>
  </scstep>
  <scstep>
   <time name="dav">   19.87   20.02</time>
   <time name="total">   74.02   74.27</time>
   <energy>
    <i name="e_fr_energy">    -54.88899502 </i>
    <i name="e_wo_entrp">    -54.88899502 </i>
    <i name="e_0_energy">    -54.88899502 </i>
   </energy>
  </scstep>
  <scstep>
   <time name="dav">   20.31   20.43</time>
   <time name="total">   74.60   74.86</time>
   <energy>
    <i name="e_fr_energy">    -54.88925606 </i>
    <i name="e_wo_entrp">    -54.88925606 </i>
    <i name="e_0_energy">    -54.88925606 </i>
   </energy>
  </scstep>
  <scstep>
   <time name="dav">   21.29   21.34</time>
   <time name="total">   75.20   75.54</time>
   <energy>
    <i name="e_fr_energy">    -54.88940422 </i>
    <i name="e_wo_entrp">    -54.88940422 </i>
    <i name="e_0_energy">    -54.88940422 </i>
   </energy>
  </scstep>
  <scstep>
   <time name="dav">   20.88   20.91</time>
   <time name="total">   73.17   73.25</time>
   <energy>
    <i name="alphaZ">     29.14931736 </i>
    <i name="ewald">   7900.70045043 </i>
    <i name="hartreedc"> -10079.01180599 </i>
    <i name="XCdc">     20.22941217 </i>
    <i name="pawpsdc">   1253.76895550 </i>
    <i name="pawaedc">  -1159.43067924 </i>
    <i name="eentropy">      0.00000000 </i>
    <i name="bandstr">   -452.88405879 </i>
    <i name="atom">   2432.58897501 </i>
    <i name="e_fr_energy">    -54.88943356 </i>
    <i name="e_wo_entrp">    -54.88943356 </i>
    <i name="e_0_energy">    -54.88943356 </i>
   </energy>
  </scstep>
  <structure>
   <crystal>
    <varray name="basis" >
     <v>       5.94488130       0.00000007      -0.00000000 </v>
     <v>       2.97244029       5.14841805      -0.00000000 </v>
     <v>      -0.00000000      -0.00000000      21.64542579 </v>
    </varray>
    <i name="volume">    662.49578840 </i>
    <varray name="rec_basis" >
     <v>       0.16821194      -0.09711720       0.00000000 </v>
     <v>      -0.00000000       0.19423442       0.00000000 </v>
     <v>       0.00000000       0.00000000       0.04619914 </v>
    </varray>
   </crystal>
   <varray name="positions" >
    <v>       0.33333300       0.33333300       0.49992500 </v>
    <v>       0.66666700       0.66666700       0.50007500 </v>
    <v>      -0.00000000       0.00000000       0.44685217 </v>
    <v>       0.00000000       0.00000000       0.55178400 </v>
    <v>       0.63285155       0.00038581       0.57044744 </v>
    <v>       0.00038581       0.36676365       0.57044744 </v>
    <v>       0.36676365       0.63285155       0.57044744 </v>
    <v>       0.36368718       0.99962552       0.42968241 </v>
    <v>       0.99962552       0.63668629       0.42968241 </v>
    <v>       0.63668629       0.36368718       0.42968241 </v>
   </varray>
  </structure>
  <varray name="forces" >
   <v>      -0.00000000      -0.00000000       0.11619965 </v>
   <v>      -0.00000000      -0.00000000       0.11767375 </v>
   <v>      -0.00000000      -0.00000000      -0.20302870 </v>
   <v>      -0.00000000      -0.00000000      -0.32665037 </v>
   <v>      -0.70472158      -0.00902066       0.28389412 </v>
   <v>       0.34454864       0.61481710       0.28389412 </v>
   <v>       0.36017294      -0.60579644       0.28389412 </v>
   <v>      -0.53166110       0.01001659      -0.18529223 </v>
   <v>       0.27450514       0.45542370      -0.18529223 </v>
   <v>       0.25715596      -0.46544029      -0.18529223 </v>
  </varray>
  <varray name="stress" >
   <v>       7.66657092      -0.00000084       0.00000000 </v>
   <v>      -0.00000002       7.66657028      -0.00000000 </v>
   <v>       0.00000000      -0.00000000       4.86722389 </v>
  </varray>
  <energy>
   <i name="e_fr_energy">    -54.88943356 </i>
   <i name="e_wo_entrp">    -54.88943356 </i>
   <i name="e_0_energy">      0.00000000 </i>
  </energy>
  <time name="totalsc"> 2076.76 2086.42</time>
 </calculation>
 <calculation>
  <scstep>
   <time name="dav">   28.59   28.91</time>
   <time name="total">   82.33   82.88</time>
   <energy>
    <i name="alphaZ">     28.53522688 </i>
    <i name="ewald">   7777.21345837 </i>
    <i name="hartreedc">  -9943.77780168 </i>
    <i name="XCdc">     19.29788472 </i>
    <i name="pawpsdc">   1253.77274192 </i>
    <i name="pawaedc">  -1159.43455170 </i>
    <i name="eentropy">      0.00000000 </i>
    <i name="bandstr">   -463.18720176 </i>
    <i name="atom">   2432.58897501 </i>
    <i name="e_fr_energy">    -54.99126824 </i>
    <i name="e_wo_entrp">    -54.99126824 </i>
    <i name="e_0_energy">    -54.99126824 </i>
   </energy>
  </scstep>
  <scstep>
   <time name="dav">   30.00   30.23</time>
   <time name="total">   84.01   84.37</time>
   <energy>
    <i name="e_fr_energy">    -54.93667115 </i>
    <i name="e_wo_entrp">    -54.93667115 </i>
    <i name="e_0_energy">    -54.93667115 </i>
   </energy>
  </scstep>
  <scstep>
   <time name="dav">   31.43   31.59</time>
   <time name="total">   85.62   85.98</time>
   <energy>
    <i name="e_fr_energy">    -54.92883079 </i>
    <i name="e_wo_entrp">    -54.92883079 </i>
    <i name="e_0_energy">    -54.92883079 </i>
   </energy>
  </scstep>
  <scstep>
   <time name="dav">   30.80   30.87</time>
   <time name="total">   84.72   84.92</time>
   <energy>
    <i name="e_fr_energy">    -54.92247222 </i>
    <i name="e_wo_entrp">    -54.92247222 </i>
    <i name="e_0_energy">    -54.92247222 </i>
   </energy>
  </scstep>
  <scstep>
   <time name="dav">   31.15   31.24</time>
   <time name="total">   85.00   85.32</time>
   <energy>
    <i name="e_fr_energy">    -54.92177489 </i>
    <i name="e_wo_entrp">    -54.92177489 </i>
    <i name="e_0_energy">    -54.92177489 </i>
   </energy>
  </scstep>
  <scstep>
   <time name="dav">   24.79   24.92</time>
   <time name="total">   78.83   79.08</time>
   <energy>
    <i name="e_fr_energy">    -54.92163746 </i>
    <i name="e_wo_entrp">    -54.92163746 </i>
    <i name="e_0_energy">    -54.92163746 </i>
   </energy>
  </scstep>
  <scstep>
   <time name="dav">   20.03   20.31</time>
   <time name="total">   71.69   72.32</time>
   <energy>
    <i name="alphaZ">     28.53522688 </i>
    <i name="ewald">   7777.21345837 </i>
    <i name="hartreedc">  -9952.03281914 </i>
    <i name="XCdc">     19.74274103 </i>
    <i name="pawpsdc">   1242.22322064 </i>
    <i name="pawaedc">  -1147.68962092 </i>
    <i name="eentropy">      0.00000000 </i>
    <i name="bandstr">   -455.50281382 </i>
    <i name="atom">   2432.58897501 </i>
    <i name="e_fr_energy">    -54.92163193 </i>
    <i name="e_wo_entrp">    -54.92163193 </i>
    <i name="e_0_energy">    -54.92163193 </i>
   </energy>
  </scstep>
  <structure>
   <crystal>
    <varray name="basis" >
     <v>       5.99544009       0.00000007      -0.00000000 </v>
     <v>       2.99771969       5.19220324      -0.00000000 </v>
     <v>      -0.00000000      -0.00000000      21.73989446 </v>
    </varray>
    <i name="volume">    676.75298553 </i>
    <varray name="rec_basis" >
     <v>       0.16679343      -0.09629822       0.00000000 </v>
     <v>      -0.00000000       0.19259647       0.00000000 </v>
     <v>       0.00000000       0.00000000       0.04599838 </v>
    </varray>
   </crystal>
   <varray name="positions" >
    <v>       0.33333300       0.33333300       0.49992500 </v>
    <v>       0.66666700       0.66666700       0.50007500 </v>
    <v>      -0.00000000       0.00000000       0.44692974 </v>
    <v>       0.00000000       0.00000000       0.55178400 </v>
    <v>       0.63245530       0.00038789       0.57063537 </v>
    <v>       0.00038789       0.36715781       0.57063537 </v>
    <v>       0.36715781       0.63245530       0.57063537 </v>
    <v>       0.36429460       0.99962275       0.42948709 </v>
    <v>       0.99962275       0.63608165       0.42948709 </v>
    <v>       0.63608165       0.36429460       0.42948709 </v>
   </varray>
  </structure>
  <varray name="forces" >
   <v>      -0.00000000      -0.00000000       0.11531741 </v>
   <v>      -0.00000000      -0.00000000       0.11615998 </v>
   <v>       0.00000000      -0.00000000      -0.24051723 </v>
   <v>       0.00000000      -0.00000000      -0.26843193 </v>
   <v>      -0.51561914      -0.00954917       0.09397478 </v>
   <v>       0.24953972       0.45131385       0.09397478 </v>
   <v>       0.26607942      -0.44176467       0.09397478 </v>
   <v>      -0.67131189       0.00919137      -0.00148418 </v>
   <v>       0.34361587       0.57677744      -0.00148418 </v>
   <v>       0.32769602      -0.58596881      -0.00148418 </v>
  </varray>
  <varray name="stress" >
   <v>      -0.08078867      -0.00000081       0.00000000 </v>
   <v>       0.00000082      -0.08078866       0.00000000 </v>
   <v>       0.00000000       0.00000000       1.12063153 </v>
  </varray>
  <energy>
   <i name="e_fr_energy">    -54.92163193 </i>
   <i name="e_wo_entrp">    -54.92163193 </i>
   <i name="e_0_energy">      0.00000000 </i>
  </energy>
  <time name="totalsc">  708.48  711.70</time>
 </calculation>
 <calculation>
  <scstep>
   <time name="dav">   23.33   23.37</time>
   <time name="total">   77.86   78.51</time>
   <energy>
    <i name="alphaZ">     28.55785825 </i>
    <i name="ewald">   7812.30195758 </i>
    <i name="hartreedc">  -9985.46341541 </i>
    <i name="XCdc">     19.79091407 </i>
    <i name="pawpsdc">   1241.67557875 </i>
    <i name="pawaedc">  -1147.12608320 </i>
    <i name="eentropy">      0.00000000 </i>
    <i name="bandstr">   -457.29681089 </i>
    <i name="atom">   2432.58897501 </i>
    <i name="e_fr_energy">    -54.97102584 </i>
    <i name="e_wo_entrp">    -54.97102584 </i>
    <i name="e_0_energy">    -54.97102584 </i>
   </energy>
  </scstep>
  <scstep>
   <time name="dav">   30.54   30.75</time>
   <time name="total">   85.31   85.68</time>
   <energy>
    <i name="e_fr_energy">    -55.00275555 </i>
    <i name="e_wo_entrp">    -55.00275555 </i>
    <i name="e_0_energy">    -55.00275555 </i>
   </energy>
  </scstep>
  <scstep>
   <time name="dav">   29.40   29.68</time>
   <time name="total">   83.42   83.89</time>
   <energy>
    <i name="e_fr_energy">    -55.00104395 </i>
    <i name="e_wo_entrp">    -55.00104395 </i>
    <i name="e_0_energy">    -55.00104395 </i>
   </energy>
  </scstep>
  <scstep>
   <time name="dav">   31.37   31.49</time>
   <time name="total">   84.69   85.80</time>
   <energy>
    <i name="e_fr_energy">    -55.00063539 </i>
    <i name="e_wo_entrp">    -55.00063539 </i>
    <i name="e_0_energy">    -55.00063539 </i>
   </energy>
  </scstep>
  <scstep>
   <time name="dav">   30.43   30.55</time>
   <time name="total">   84.36   84.58</time>
   <energy>
    <i name="e_fr_energy">    -55.00027337 </i>
    <i name="e_wo_entrp">    -55.00027337 </i>
    <i name="e_0_energy">    -55.00027337 </i>
   </energy>
  </scstep>
  <scstep>
   <time name="dav">   19.34   19.47</time>
   <time name="total">   71.58   71.87</time>
   <energy>
    <i name="alphaZ">     28.55785825 </i>
    <i name="ewald">   7812.30195758 </i>
    <i name="hartreedc">  -9986.60262580 </i>
    <i name="XCdc">     19.80512116 </i>
    <i name="pawpsdc">   1241.16568322 </i>
    <i name="pawaedc">  -1146.60689949 </i>
    <i name="eentropy">      0.00000000 </i>
    <i name="bandstr">   -456.21029630 </i>
    <i name="atom">   2432.58897501 </i>
    <i name="e_fr_energy">    -55.00022636 </i>
    <i name="e_wo_entrp">    -55.00022636 </i>
    <i name="e_0_energy">    -55.00022636 </i>
   </energy>
  </scstep>
  <structure>
   <crystal>
    <varray name="basis" >
     <v>       5.98806104       0.00000006       0.00000000 </v>
     <v>       2.99403017       5.18581279       0.00000000 </v>
     <v>      -0.00000000       0.00000000      21.77623657 </v>
    </varray>
    <i name="volume">    676.21667614 </i>
    <varray name="rec_basis" >
     <v>       0.16699897      -0.09641689       0.00000000 </v>
     <v>      -0.00000000       0.19283380      -0.00000000 </v>
     <v>      -0.00000000      -0.00000000       0.04592162 </v>
    </varray>
   </crystal>
   <varray name="positions" >
    <v>       0.33333300       0.33333300       0.49992500 </v>
    <v>       0.66666700       0.66666700       0.50007500 </v>
    <v>       0.00000000       0.00000000       0.44639035 </v>
    <v>       0.00000000       0.00000000       0.55178400 </v>
    <v>       0.62845114       0.00029980       0.57081442 </v>
    <v>       0.00029980       0.37125007       0.57081442 </v>
    <v>       0.37125007       0.62845114       0.57081442 </v>
    <v>       0.35881945       0.99970765       0.42951220 </v>
    <v>       0.99970765       0.64147190       0.42951220 </v>
    <v>       0.64147190       0.35881945       0.42951220 </v>
   </varray>
  </structure>
  <varray name="forces" >
   <v>       0.00000000       0.00000000       0.13990223 </v>
   <v>       0.00000000       0.00000000       0.13424256 </v>
   <v>       0.00000000       0.00000000       0.17330452 </v>
   <v>       0.00000000      -0.00000000      -0.33593223 </v>
   <v>      -0.29313625      -0.00678123       0.02093887 </v>
   <v>       0.14069539       0.25725404       0.02093887 </v>
   <v>       0.15244086      -0.25047281       0.02093887 </v>
   <v>      -0.30740062       0.00522421      -0.05811123 </v>
   <v>       0.15822459       0.26360463      -0.05811123 </v>
   <v>       0.14917602      -0.26882884      -0.05811123 </v>
  </varray>
  <varray name="stress" >
   <v>       1.04783449      -0.00000055       0.00000000 </v>
   <v>       0.00000043       1.04783440       0.00000000 </v>
   <v>       0.00000000      -0.00000000      -0.00410919 </v>
  </varray>
  <energy>
   <i name="e_fr_energy">    -55.00022636 </i>
   <i name="e_wo_entrp">    -55.00022636 </i>
   <i name="e_0_energy">      0.00000000 </i>
  </energy>
  <time name="totalsc">  623.33  627.69</time>
 </calculation>
 <calculation>
  <scstep>
   <time name="dav">   22.87   22.93</time>
   <time name="total">   76.78   77.17</time>
   <energy>
    <i name="alphaZ">     28.57515691 </i>
    <i name="ewald">   7839.35336960 </i>
    <i name="hartreedc"> -10012.37321060 </i>
    <i name="XCdc">     19.84857889 </i>
    <i name="pawpsdc">   1241.12906112 </i>
    <i name="pawaedc">  -1146.57120596 </i>
    <i name="eentropy">      0.00000000 </i>
    <i name="bandstr">   -457.55280968 </i>
    <i name="atom">   2432.58897501 </i>
    <i name="e_fr_energy">    -55.00208470 </i>
    <i name="e_wo_entrp">    -55.00208470 </i>
    <i name="e_0_energy">    -55.00208470 </i>
   </energy>
  </scstep>
  <scstep>
   <time name="dav">   29.85   29.89</time>
   <time name="total">   83.80   84.01</time>
   <energy>
    <i name="e_fr_energy">    -55.02062576 </i>
    <i name="e_wo_entrp">    -55.02062576 </i>
    <i name="e_0_energy">    -55.02062576 </i>
   </energy>
  </scstep>
  <scstep>
   <time name="dav">   27.47   27.57</time>
   <time name="total">   81.49   81.61</time>
   <energy>
    <i name="e_fr_energy">    -55.01960701 </i>
    <i name="e_wo_entrp">    -55.01960701 </i>
    <i name="e_0_energy">    -55.01960701 </i>
   </energy>
  </scstep>
  <scstep>
   <time name="dav">   32.73   32.88</time>
   <time name="total">   86.60   87.11</time>
   <energy>
    <i name="e_fr_energy">    -55.01931977 </i>
    <i name="e_wo_entrp">    -55.01931977 </i>
    <i name="e_0_energy">    -55.01931977 </i>
   </energy>
  </scstep>
  <scstep>
   <time name="dav">   30.85   31.18</time>
   <time name="total">   84.64   85.34</time>
   <energy>
    <i name="e_fr_energy">    -55.01910608 </i>
    <i name="e_wo_entrp">    -55.01910608 </i>
    <i name="e_0_energy">    -55.01910608 </i>
   </energy>
  </scstep>
  <scstep>
   <time name="dav">   18.10   18.20</time>
   <time name="total">   70.00   70.51</time>
   <energy>
    <i name="alphaZ">     28.57515691 </i>
    <i name="ewald">   7839.35336960 </i>
    <i name="hartreedc"> -10013.52473112 </i>
    <i name="XCdc">     19.86241064 </i>
    <i name="pawpsdc">   1241.02772179 </i>
    <i name="pawaedc">  -1146.46330202 </i>
    <i name="eentropy">      0.00000000 </i>
    <i name="bandstr">   -456.43865709 </i>
    <i name="atom">   2432.58897501 </i>
    <i name="e_fr_energy">    -55.01905628 </i>
    <i name="e_wo_entrp">    -55.01905628 </i>
    <i name="e_0_energy">    -55.01905628 </i>
   </energy>
  </scstep>
  <structure>
   <crystal>
    <varray name="basis" >
     <v>       5.98246085       0.00000005       0.00000000 </v>
     <v>       2.99123008       5.18096288       0.00000000 </v>
     <v>       0.00000000       0.00000000      21.80381769 </v>
    </varray>
    <i name="volume">    675.80731210 </i>
    <varray name="rec_basis" >
     <v>       0.16715529      -0.09650715       0.00000000 </v>
     <v>      -0.00000000       0.19301432      -0.00000000 </v>
     <v>      -0.00000000      -0.00000000       0.04586353 </v>
    </varray>
   </crystal>
   <varray name="positions" >
    <v>       0.33333300       0.33333300       0.49992500 </v>
    <v>       0.66666700       0.66666700       0.50007500 </v>
    <v>       0.00000000      -0.00000000       0.44598167 </v>
    <v>       0.00000000       0.00000000       0.55178400 </v>
    <v>       0.62540851       0.00023286       0.57095008 </v>
    <v>       0.00023286       0.37435964       0.57095008 </v>
    <v>       0.37435964       0.62540851       0.57095008 </v>
    <v>       0.35465907       0.99977217       0.42953123 </v>
    <v>       0.99977217       0.64556776       0.42953123 </v>
    <v>       0.64556776       0.35465907       0.42953123 </v>
   </varray>
  </structure>
  <varray name="forces" >
   <v>      -0.00000000       0.00000000       0.16243827 </v>
   <v>      -0.00000000       0.00000000       0.15304171 </v>
   <v>      -0.00000000       0.00000000       0.48411454 </v>
   <v>      -0.00000000       0.00000000      -0.38693501 </v>
   <v>      -0.14775872      -0.00404061      -0.03297204 </v>
   <v>       0.07038008       0.12998310      -0.03297204 </v>
   <v>       0.07737864      -0.12594249      -0.03297204 </v>
   <v>       0.01248768       0.00332982      -0.10458113 </v>
   <v>      -0.00336013      -0.01247956      -0.10458113 </v>
   <v>      -0.00912755       0.00914974      -0.10458113 </v>
  </varray>
  <varray name="stress" >
   <v>       2.18693854      -0.00000033       0.00000000 </v>
   <v>       0.00000008       2.18693835       0.00000000 </v>
   <v>       0.00000000       0.00000000      -1.13141474 </v>
  </varray>
  <energy>
   <i name="e_fr_energy">    -55.01905628 </i>
   <i name="e_wo_entrp">    -55.01905628 </i>
   <i name="e_0_energy">      0.00000000 </i>
  </energy>
  <time name="totalsc">  618.98  622.07</time>
 </calculation>
 <calculation>
  <scstep>
   <time name="dav">   22.76   22.81</time>
   <time name="total">   77.18   77.38</time>
   <energy>
    <i name="alphaZ">     28.36728445 </i>
    <i name="ewald">   7723.93789219 </i>
    <i name="hartreedc">  -9898.54136155 </i>
    <i name="XCdc">     19.55005713 </i>
    <i name="pawpsdc">   1241.00486711 </i>
    <i name="pawaedc">  -1146.44096510 </i>
    <i name="eentropy">      0.00000000 </i>
    <i name="bandstr">   -455.49704035 </i>
    <i name="atom">   2432.58897501 </i>
    <i name="e_fr_energy">    -55.03029111 </i>
    <i name="e_wo_entrp">    -55.03029111 </i>
    <i name="e_0_energy">    -55.03029111 </i>
   </energy>
  </scstep>
  <scstep>
   <time name="dav">   28.73   28.84</time>
   <time name="total">   82.99   83.18</time>
   <energy>
    <i name="e_fr_energy">    -55.03188656 </i>
    <i name="e_wo_entrp">    -55.03188656 </i>
    <i name="e_0_energy">    -55.03188656 </i>
   </energy>
  </scstep>
  <scstep>
   <time name="dav">   31.52   31.90</time>
   <time name="total">   85.11   86.55</time>
   <energy>
    <i name="e_fr_energy">    -55.03005035 </i>
    <i name="e_wo_entrp">    -55.03005035 </i>
    <i name="e_0_energy">    -55.03005035 </i>
   </energy>
  </scstep>
  <scstep>
   <time name="dav">   33.10   33.25</time>
   <time name="total">   86.91   87.35</time>
   <energy>
    <i name="e_fr_energy">    -55.02918385 </i>
    <i name="e_wo_entrp">    -55.02918385 </i>
    <i name="e_0_energy">    -55.02918385 </i>
   </energy>
  </scstep>
  <scstep>
   <time name="dav">   31.82   32.03</time>
   <time name="total">   85.50   86.14</time>
   <energy>
    <i name="e_fr_energy">    -55.02879168 </i>
    <i name="e_wo_entrp">    -55.02879168 </i>
    <i name="e_0_energy">    -55.02879168 </i>
   </energy>
  </scstep>
  <scstep>
   <time name="dav">   21.92   22.15</time>
   <time name="total">   73.84   74.35</time>
   <energy>
    <i name="alphaZ">     28.36728445 </i>
    <i name="ewald">   7723.93789219 </i>
    <i name="hartreedc">  -9899.70473705 </i>
    <i name="XCdc">     19.68430562 </i>
    <i name="pawpsdc">   1236.92336763 </i>
    <i name="pawaedc">  -1142.28783405 </i>
    <i name="eentropy">      0.00000000 </i>
    <i name="bandstr">   -454.53806414 </i>
    <i name="atom">   2432.58897501 </i>
    <i name="e_fr_energy">    -55.02881033 </i>
    <i name="e_wo_entrp">    -55.02881033 </i>
    <i name="e_0_energy">    -55.02881033 </i>
   </energy>
  </scstep>
  <structure>
   <crystal>
    <varray name="basis" >
     <v>       6.01099956       0.00000005       0.00000000 </v>
     <v>       3.00549944       5.20567813       0.00000000 </v>
     <v>       0.00000000       0.00000000      21.75553364 </v>
    </varray>
    <i name="volume">    680.75955659 </i>
    <varray name="rec_basis" >
     <v>       0.16636168      -0.09604896       0.00000000 </v>
     <v>      -0.00000000       0.19209793      -0.00000000 </v>
     <v>      -0.00000000      -0.00000000       0.04596532 </v>
    </varray>
   </crystal>
   <varray name="positions" >
    <v>       0.33333300       0.33333300       0.49992500 </v>
    <v>       0.66666700       0.66666700       0.50007500 </v>
    <v>       0.00000000      -0.00000000       0.44707071 </v>
    <v>       0.00000000       0.00000000       0.55178400 </v>
    <v>       0.62308908       0.00016835       0.57091066 </v>
    <v>       0.00016835       0.37674356       0.57091066 </v>
    <v>       0.37674356       0.62308908       0.57091066 </v>
    <v>       0.35341220       0.99982835       0.42927365 </v>
    <v>       0.99982835       0.64675845       0.42927365 </v>
    <v>       0.64675845       0.35341220       0.42927365 </v>
   </varray>
  </structure>
  <varray name="forces" >
   <v>       0.00000000       0.00000000       0.10560755 </v>
   <v>       0.00000000       0.00000000       0.08987675 </v>
   <v>       0.00000000       0.00000000      -0.06618850 </v>
   <v>       0.00000000       0.00000000       0.12846659 </v>
   <v>       0.05966376      -0.00180363      -0.07822128 </v>
   <v>      -0.03139386      -0.05076851      -0.07822128 </v>
   <v>      -0.02826990       0.05257214      -0.07822128 </v>
   <v>      -0.06257734       0.00207039      -0.00769952 </v>
   <v>       0.03308168       0.05315837      -0.00769952 </v>
   <v>       0.02949566      -0.05522876      -0.00769952 </v>
  </varray>
  <varray name="stress" >
   <v>      -1.99364974      -0.00000010      -0.00000000 </v>
   <v>       0.00000033      -1.99364957      -0.00000000 </v>
   <v>      -0.00000000      -0.00000000      -0.72491246 </v>
  </varray>
  <energy>
   <i name="e_fr_energy">    -55.02881033 </i>
   <i name="e_wo_entrp">    -55.02881033 </i>
   <i name="e_0_energy">      0.00000000 </i>
  </energy>
  <time name="totalsc">  627.08  631.14</time>
 </calculation>
 <calculation>
  <scstep>
   <time name="dav">   24.16   24.27</time>
   <time name="total">   78.14   78.47</time>
   <energy>
    <i name="alphaZ">     28.41922540 </i>
    <i name="ewald">   7752.76431537 </i>
    <i name="hartreedc">  -9928.39421072 </i>
    <i name="XCdc">     19.76062837 </i>
    <i name="pawpsdc">   1236.65384268 </i>
    <i name="pawaedc">  -1142.00811020 </i>
    <i name="eentropy">      0.00000000 </i>
    <i name="bandstr">   -454.81481828 </i>
    <i name="atom">   2432.58897501 </i>
    <i name="e_fr_energy">    -55.03015238 </i>
    <i name="e_wo_entrp">    -55.03015238 </i>
    <i name="e_0_energy">    -55.03015238 </i>
   </energy>
  </scstep>
  <scstep>
   <time name="dav">   26.51   26.59</time>
   <time name="total">   80.34   80.60</time>
   <energy>
    <i name="e_fr_energy">    -55.03032037 </i>
    <i name="e_wo_entrp">    -55.03032037 </i>
    <i name="e_0_energy">    -55.03032037 </i>
   </energy>
  </scstep>
  <scstep>
   <time name="dav">   28.17   28.28</time>
   <time name="total">   80.08   80.31</time>
   <energy>
    <i name="alphaZ">     28.41922540 </i>
    <i name="ewald">   7752.76431537 </i>
    <i name="hartreedc">  -9928.11216231 </i>
    <i name="XCdc">     19.72680485 </i>
    <i name="pawpsdc">   1237.04373975 </i>
    <i name="pawaedc">  -1142.40252655 </i>
    <i name="eentropy">      0.00000000 </i>
    <i name="bandstr">   -455.05867093 </i>
    <i name="atom">   2432.58897501 </i>
    <i name="e_fr_energy">    -55.03029941 </i>
    <i name="e_wo_entrp">    -55.03029941 </i>
    <i name="e_0_energy">    -55.03029941 </i>
   </energy>
  </scstep>
  <structure>
   <crystal>
    <varray name="basis" >
     <v>       6.00383062       0.00000005       0.00000000 </v>
     <v>       3.00191497       5.19946964       0.00000000 </v>
     <v>       0.00000000       0.00000000      21.76766263 </v>
    </varray>
    <i name="volume">    679.51535316 </i>
    <varray name="rec_basis" >
     <v>       0.16656033      -0.09616364       0.00000000 </v>
     <v>      -0.00000000       0.19232731      -0.00000000 </v>
     <v>      -0.00000000      -0.00000000       0.04593971 </v>
    </varray>
   </crystal>
   <varray name="positions" >
    <v>       0.33333300       0.33333300       0.49992500 </v>
    <v>       0.66666700       0.66666700       0.50007500 </v>
    <v>       0.00000000      -0.00000000       0.44679653 </v>
    <v>       0.00000000       0.00000000       0.55178400 </v>
    <v>       0.62366896       0.00018448       0.57092058 </v>
    <v>       0.00018448       0.37614756       0.57092058 </v>
    <v>       0.37614756       0.62366896       0.57092058 </v>
    <v>       0.35372393       0.99981430       0.42933850 </v>
    <v>       0.99981430       0.64646077       0.42933850 </v>
    <v>       0.64646077       0.35372393       0.42933850 </v>
   </varray>
  </structure>
  <varray name="forces" >
   <v>      -0.00000000       0.00000000       0.11901746 </v>
   <v>      -0.00000000       0.00000000       0.10489118 </v>
   <v>      -0.00000000       0.00000000       0.07497373 </v>
   <v>      -0.00000000      -0.00000000      -0.00438866 </v>
   <v>       0.00813273      -0.00221736      -0.06635441 </v>
   <v>      -0.00598665      -0.00593447      -0.06635441 </v>
   <v>      -0.00214607       0.00815183      -0.06635441 </v>
   <v>      -0.04547689       0.00302597      -0.03181016 </v>
   <v>       0.02535901       0.03787115      -0.03181016 </v>
   <v>       0.02011788      -0.04089713      -0.03181016 </v>
  </varray>
  <varray name="stress" >
   <v>      -1.57084437      -0.00000025      -0.00000000 </v>
   <v>       0.00000043      -1.57084424      -0.00000000 </v>
   <v>       0.00000000       0.00000000      -0.93255846 </v>
  </varray>
  <energy>
   <i name="e_fr_energy">    -55.03029941 </i>
   <i name="e_wo_entrp">    -55.03029941 </i>
   <i name="e_0_energy">      0.00000000 </i>
  </energy>
  <time name="totalsc">  373.89  375.38</time>
 </calculation>
 <calculation>
  <scstep>
   <time name="dav">   30.05   30.25</time>
   <time name="total">   84.08   84.39</time>
   <energy>
    <i name="alphaZ">     28.60582717 </i>
    <i name="ewald">   7759.61508961 </i>
    <i name="hartreedc">  -9940.25871648 </i>
    <i name="XCdc">     20.00687840 </i>
    <i name="pawpsdc">   1237.24839130 </i>
    <i name="pawaedc">  -1142.60280182 </i>
    <i name="eentropy">      0.00000000 </i>
    <i name="bandstr">   -450.23977932 </i>
    <i name="atom">   2432.58897501 </i>
    <i name="e_fr_energy">    -55.03613613 </i>
    <i name="e_wo_entrp">    -55.03613613 </i>
    <i name="e_0_energy">    -55.03613613 </i>
   </energy>
  </scstep>
  <scstep>
   <time name="dav">   27.93   27.98</time>
   <time name="total">   81.81   81.94</time>
   <energy>
    <i name="e_fr_energy">    -55.03131069 </i>
    <i name="e_wo_entrp">    -55.03131069 </i>
    <i name="e_0_energy">    -55.03131069 </i>
   </energy>
  </scstep>
  <scstep>
   <time name="dav">   31.11   31.29</time>
   <time name="total">   84.99   85.32</time>
   <energy>
    <i name="e_fr_energy">    -55.03033422 </i>
    <i name="e_wo_entrp">    -55.03033422 </i>
    <i name="e_0_energy">    -55.03033422 </i>
   </energy>
  </scstep>
  <scstep>
   <time name="dav">   32.74   32.88</time>
   <time name="total">   86.41   87.04</time>
   <energy>
    <i name="e_fr_energy">    -55.02941909 </i>
    <i name="e_wo_entrp">    -55.02941909 </i>
    <i name="e_0_energy">    -55.02941909 </i>
   </energy>
  </scstep>
  <scstep>
   <time name="dav">   21.89   22.07</time>
   <time name="total">   73.86   74.21</time>
   <energy>
    <i name="alphaZ">     28.60582717 </i>
    <i name="ewald">   7759.61508961 </i>
    <i name="hartreedc">  -9937.13307775 </i>
    <i name="XCdc">     19.86529696 </i>
    <i name="pawpsdc">   1239.97260148 </i>
    <i name="pawaedc">  -1145.37275388 </i>
    <i name="eentropy">      0.00000000 </i>
    <i name="bandstr">   -453.17132367 </i>
    <i name="atom">   2432.58897501 </i>
    <i name="e_fr_energy">    -55.02936507 </i>
    <i name="e_wo_entrp">    -55.02936507 </i>
    <i name="e_0_energy">    -55.02936507 </i>
   </energy>
  </scstep>
  <structure>
   <crystal>
    <varray name="basis" >
     <v>       5.99266265       0.00000004       0.00000000 </v>
     <v>       2.99633099       5.18979789       0.00000000 </v>
     <v>       0.00000000       0.00000000      21.70634624 </v>
    </varray>
    <i name="volume">    675.08273299 </i>
    <varray name="rec_basis" >
     <v>       0.16687073      -0.09634286       0.00000000 </v>
     <v>      -0.00000000       0.19268573      -0.00000000 </v>
     <v>      -0.00000000      -0.00000000       0.04606948 </v>
    </varray>
   </crystal>
   <varray name="positions" >
    <v>       0.33333300       0.33333300       0.49992500 </v>
    <v>       0.66666700       0.66666700       0.50007500 </v>
    <v>       0.00000000      -0.00000000       0.44734658 </v>
    <v>       0.00000000       0.00000000       0.55178400 </v>
    <v>       0.62296652       0.00014040       0.57074800 </v>
    <v>       0.00014040       0.37689408       0.57074800 </v>
    <v>       0.37689408       0.62296652       0.57074800 </v>
    <v>       0.35289157       0.99986369       0.42917463 </v>
    <v>       0.99986369       0.64724375       0.42917463 </v>
    <v>       0.64724375       0.35289157       0.42917463 </v>
   </varray>
  </structure>
  <varray name="forces" >
   <v>      -0.00000000       0.00000000       0.05231574 </v>
   <v>      -0.00000000       0.00000000       0.03515032 </v>
   <v>      -0.00000000      -0.00000000      -0.19538072 </v>
   <v>      -0.00000000       0.00000000       0.24001739 </v>
   <v>       0.02882634      -0.00168732       0.00608255 </v>
   <v>      -0.01587443      -0.02412068       0.00608255 </v>
   <v>      -0.01295191       0.02580800       0.00608255 </v>
   <v>       0.01334581       0.00049688      -0.05011679 </v>
   <v>      -0.00624260      -0.01180625      -0.05011679 </v>
   <v>      -0.00710322       0.01130937      -0.05011679 </v>
  </varray>
  <varray name="stress" >
   <v>       0.54394343      -0.00000006       0.00000000 </v>
   <v>      -0.00000001       0.54394338      -0.00000000 </v>
   <v>      -0.00000000       0.00000000       1.06453401 </v>
  </varray>
  <energy>
   <i name="e_fr_energy">    -55.02936507 </i>
   <i name="e_wo_entrp">    -55.02936507 </i>
   <i name="e_0_energy">      0.00000000 </i>
  </energy>
  <time name="totalsc">  546.87  549.07</time>
 </calculation>
 <calculation>
  <scstep>
   <time name="dav">   28.08   28.29</time>
   <time name="total">   82.25   82.52</time>
   <energy>
    <i name="alphaZ">     28.48489269 </i>
    <i name="ewald">   7755.18199703 </i>
    <i name="hartreedc">  -9929.08179409 </i>
    <i name="XCdc">     19.68136529 </i>
    <i name="pawpsdc">   1240.45238024 </i>
    <i name="pawaedc">  -1145.86570110 </i>
    <i name="eentropy">      0.00000000 </i>
    <i name="bandstr">   -456.47556231 </i>
    <i name="atom">   2432.58897501 </i>
    <i name="e_fr_energy">    -55.03344724 </i>
    <i name="e_wo_entrp">    -55.03344724 </i>
    <i name="e_0_energy">    -55.03344724 </i>
   </energy>
  </scstep>
  <scstep>
   <time name="dav">   27.47   27.50</time>
   <time name="total">   81.71   81.83</time>
   <energy>
    <i name="e_fr_energy">    -55.03190079 </i>
    <i name="e_wo_entrp">    -55.03190079 </i>
    <i name="e_0_energy">    -55.03190079 </i>
   </energy>
  </scstep>
  <scstep>
   <time name="dav">   30.78   30.90</time>
   <time name="total">   84.98   85.20</time>
   <energy>
    <i name="e_fr_energy">    -55.03165519 </i>
    <i name="e_wo_entrp">    -55.03165519 </i>
    <i name="e_0_energy">    -55.03165519 </i>
   </energy>
  </scstep>
  <scstep>
   <time name="dav">   32.65   32.76</time>
   <time name="total">   86.75   87.09</time>
   <energy>
    <i name="e_fr_energy">    -55.03147697 </i>
    <i name="e_wo_entrp">    -55.03147697 </i>
    <i name="e_0_energy">    -55.03147697 </i>
   </energy>
  </scstep>
  <scstep>
   <time name="dav">   22.40   22.55</time>
   <time name="total">   74.40   74.66</time>
   <energy>
    <i name="alphaZ">     28.48489269 </i>
    <i name="ewald">   7755.18199703 </i>
    <i name="hartreedc">  -9930.91048763 </i>
    <i name="XCdc">     19.77074313 </i>
    <i name="pawpsdc">   1239.43363708 </i>
    <i name="pawaedc">  -1144.84225118 </i>
    <i name="eentropy">      0.00000000 </i>
    <i name="bandstr">   -454.73897742 </i>
    <i name="atom">   2432.58897501 </i>
    <i name="e_fr_energy">    -55.03147128 </i>
    <i name="e_wo_entrp">    -55.03147128 </i>
    <i name="e_0_energy">    -55.03147128 </i>
   </energy>
  </scstep>
  <structure>
   <crystal>
    <varray name="basis" >
     <v>       5.99988924       0.00000005       0.00000000 </v>
     <v>       2.99994428       5.19605631       0.00000000 </v>
     <v>       0.00000000       0.00000000      21.74602297 </v>
    </varray>
    <i name="volume">    677.94884092 </i>
    <varray name="rec_basis" >
     <v>       0.16666974      -0.09622681       0.00000000 </v>
     <v>      -0.00000000       0.19245365      -0.00000000 </v>
     <v>      -0.00000000      -0.00000000       0.04598542 </v>
    </varray>
   </crystal>
   <varray name="positions" >
    <v>       0.33333300       0.33333300       0.49992500 </v>
    <v>       0.66666700       0.66666700       0.50007500 </v>
    <v>       0.00000000      -0.00000000       0.44698965 </v>
    <v>       0.00000000       0.00000000       0.55178400 </v>
    <v>       0.62342190       0.00016897       0.57085999 </v>
    <v>       0.00016897       0.37641012       0.57085999 </v>
    <v>       0.37641012       0.62342190       0.57085999 </v>
    <v>       0.35343118       0.99983167       0.42928096 </v>
    <v>       0.99983167       0.64673615       0.42928096 </v>
    <v>       0.64673615       0.35343118       0.42928096 </v>
   </varray>
  </structure>
  <varray name="forces" >
   <v>      -0.00000000       0.00000000       0.09387541 </v>
   <v>      -0.00000000       0.00000000       0.07944596 </v>
   <v>      -0.00000000      -0.00000000      -0.02037485 </v>
   <v>      -0.00000000       0.00000000       0.08164859 </v>
   <v>       0.02035794      -0.00226210      -0.04547224 </v>
   <v>      -0.01213800      -0.01649944      -0.04547224 </v>
   <v>      -0.00821994       0.01876154      -0.04547224 </v>
   <v>      -0.02564841       0.00187299      -0.03272613 </v>
   <v>       0.01444626       0.02127568      -0.03272613 </v>
   <v>       0.01120215      -0.02314867      -0.03272613 </v>
  </varray>
  <varray name="stress" >
   <v>      -0.24986830      -0.00000062      -0.00000000 </v>
   <v>       0.00000064      -0.24986828       0.00000000 </v>
   <v>       0.00000000      -0.00000000       0.39143012 </v>
  </varray>
  <energy>
   <i name="e_fr_energy">    -55.03147128 </i>
   <i name="e_wo_entrp">    -55.03147128 </i>
   <i name="e_0_energy">      0.00000000 </i>
  </energy>
  <time name="totalsc">  542.89  544.73</time>
  <eigenvalues>
   <array>
    <dimension dim="1">band</dimension>
    <dimension dim="2">kpoint</dimension>
    <dimension dim="3">spin</dimension>
    <field>eigene</field>
    <field>occ</field>
    <set>
     <set comment="spin 1">
      <set comment="kpoint 1">
       <r>  -17.2536    1.0000 </r>
       <r>  -16.2742    1.0000 </r>
       <r>  -15.2109    1.0000 </r>
       <r>  -15.2108    1.0000 </r>
       <r>  -15.0146    1.0000 </r>
       <r>  -15.0145    1.0000 </r>
       <r>  -11.5569    1.0000 </r>
       <r>   -9.4451    1.0000 </r>
       <r>   -8.1886    1.0000 </r>
       <r>   -8.1886    1.0000 </r>
       <r>   -8.0245    1.0000 </r>
       <r>   -7.7480    1.0000 </r>
       <r>   -7.7480    1.0000 </r>
       <r>   -7.6438    1.0000 </r>
       <r>   -6.3198    1.0000 </r>
       <r>   -5.8752    1.0000 </r>
       <r>   -5.8752    1.0000 </r>
       <r>   -5.6229    1.0000 </r>
       <r>   -5.6229    1.0000 </r>
       <r>   -4.9597    1.0000 </r>
       <r>   -4.7198    1.0000 </r>
       <r>   -4.7135    1.0000 </r>
       <r>   -4.7135    1.0000 </r>
       <r>   -3.9542    1.0000 </r>
       <r>   -3.9542    1.0000 </r>
       <r>   -3.7771    1.0000 </r>
       <r>   -3.7771    1.0000 </r>
       <r>   -3.6672    1.0000 </r>
       <r>   -3.5166    1.0000 </r>
       <r>   -3.5166    1.0000 </r>
       <r>   -3.1748    1.0000 </r>
       <r>   -1.5630    0.0000 </r>
       <r>   -1.5630    0.0000 </r>
       <r>   -1.1390    0.0000 </r>
       <r>   -1.1390    0.0000 </r>
       <r>   -0.8044    0.0000 </r>
       <r>    0.2096    0.0000 </r>
       <r>    1.6688    0.0000 </r>
       <r>    1.6688    0.0000 </r>
       <r>    1.8237    0.0000 </r>
       <r>    2.0965    0.0000 </r>
       <r>    2.6105    0.0000 </r>
       <r>    2.7993    0.0000 </r>
       <r>    3.0544    0.0000 </r>
       <r>    3.2201    0.0000 </r>
       <r>    3.2202    0.0000 </r>
       <r>    3.6988    0.0000 </r>
       <r>    3.8306    0.0000 </r>
      </set>
      <set comment="kpoint 2">
       <r>  -17.1103    1.0000 </r>
       <r>  -16.1757    1.0000 </r>
       <r>  -15.4121    1.0000 </r>
       <r>  -15.2804    1.0000 </r>
       <r>  -15.1270    1.0000 </r>
       <r>  -15.1009    1.0000 </r>
       <r>  -11.4611    1.0000 </r>
       <r>   -9.5861    1.0000 </r>
       <r>   -8.1644    1.0000 </r>
       <r>   -8.1251    1.0000 </r>
       <r>   -7.9144    1.0000 </r>
       <r>   -7.6788    1.0000 </r>
       <r>   -7.2289    1.0000 </r>
       <r>   -6.8885    1.0000 </r>
       <r>   -6.2726    1.0000 </r>
       <r>   -6.0886    1.0000 </r>
       <r>   -5.9513    1.0000 </r>
       <r>   -5.8405    1.0000 </r>
       <r>   -5.3911    1.0000 </r>
       <r>   -5.0805    1.0000 </r>
       <r>   -5.0187    1.0000 </r>
       <r>   -4.9608    1.0000 </r>
       <r>   -4.6843    1.0000 </r>
       <r>   -4.3168    1.0000 </r>
       <r>   -4.2061    1.0000 </r>
       <r>   -3.8399    1.0000 </r>
       <r>   -3.7379    1.0000 </r>
       <r>   -3.6677    1.0000 </r>
       <r>   -3.5663    1.0000 </r>
       <r>   -3.4772    1.0000 </r>
       <r>   -3.1528    1.0000 </r>
       <r>   -1.7841    0.0000 </r>
       <r>   -1.5002    0.0000 </r>
       <r>   -1.4456    0.0000 </r>
       <r>   -1.2263    0.0000 </r>
       <r>   -0.2983    0.0000 </r>
       <r>    0.6074    0.0000 </r>
       <r>    1.5095    0.0000 </r>
       <r>    1.6029    0.0000 </r>
       <r>    1.9891    0.0000 </r>
       <r>    2.2055    0.0000 </r>
       <r>    2.4845    0.0000 </r>
       <r>    2.8314    0.0000 </r>
       <r>    2.9821    0.0000 </r>
       <r>    3.0697    0.0000 </r>
       <r>    3.2474    0.0000 </r>
       <r>    3.7846    0.0000 </r>
       <r>    3.8997    0.0000 </r>
      </set>
      <set comment="kpoint 3">
       <r>  -16.7417    1.0000 </r>
       <r>  -15.9745    1.0000 </r>
       <r>  -15.8755    1.0000 </r>
       <r>  -15.3919    1.0000 </r>
       <r>  -15.3626    1.0000 </r>
       <r>  -15.2180    1.0000 </r>
       <r>  -11.3038    1.0000 </r>
       <r>   -9.6935    1.0000 </r>
       <r>   -8.0328    1.0000 </r>
       <r>   -7.9129    1.0000 </r>
       <r>   -7.4185    1.0000 </r>
       <r>   -7.0236    1.0000 </r>
       <r>   -6.6073    1.0000 </r>
       <r>   -6.4857    1.0000 </r>
       <r>   -6.3760    1.0000 </r>
       <r>   -6.2645    1.0000 </r>
       <r>   -6.1992    1.0000 </r>
       <r>   -6.1386    1.0000 </r>
       <r>   -5.4986    1.0000 </r>
       <r>   -5.4395    1.0000 </r>
       <r>   -5.3058    1.0000 </r>
       <r>   -4.9719    1.0000 </r>
       <r>   -4.8178    1.0000 </r>
       <r>   -4.4723    1.0000 </r>
       <r>   -4.2423    1.0000 </r>
       <r>   -4.0243    1.0000 </r>
       <r>   -3.8995    1.0000 </r>
       <r>   -3.6426    1.0000 </r>
       <r>   -3.5697    1.0000 </r>
       <r>   -3.4219    1.0000 </r>
       <r>   -3.2123    1.0000 </r>
       <r>   -1.8051    0.0000 </r>
       <r>   -1.7414    0.0000 </r>
       <r>   -1.3898    0.0000 </r>
       <r>   -1.2559    0.0000 </r>
       <r>   -0.4043    0.0000 </r>
       <r>    0.6192    0.0000 </r>
       <r>    1.3447    0.0000 </r>
       <r>    1.5855    0.0000 </r>
       <r>    2.0155    0.0000 </r>
       <r>    2.2150    0.0000 </r>
       <r>    2.5677    0.0000 </r>
       <r>    2.7163    0.0000 </r>
       <r>    2.9633    0.0000 </r>
       <r>    3.1175    0.0000 </r>
       <r>    3.4761    0.0000 </r>
       <r>    3.5122    0.0000 </r>
       <r>    3.6404    0.0000 </r>
      </set>
      <set comment="kpoint 4">
       <r>  -16.8484    1.0000 </r>
       <r>  -16.0058    1.0000 </r>
       <r>  -15.6671    1.0000 </r>
       <r>  -15.5041    1.0000 </r>
       <r>  -15.2722    1.0000 </r>
       <r>  -15.2101    1.0000 </r>
       <r>  -11.2964    1.0000 </r>
       <r>   -9.6584    1.0000 </r>
       <r>   -8.2769    1.0000 </r>
       <r>   -7.7740    1.0000 </r>
       <r>   -7.6501    1.0000 </r>
       <r>   -7.2506    1.0000 </r>
       <r>   -6.5835    1.0000 </r>
       <r>   -6.4296    1.0000 </r>
       <r>   -6.3768    1.0000 </r>
       <r>   -6.2480    1.0000 </r>
       <r>   -6.1133    1.0000 </r>
       <r>   -5.8269    1.0000 </r>
       <r>   -5.7851    1.0000 </r>
       <r>   -5.5243    1.0000 </r>
       <r>   -5.3679    1.0000 </r>
       <r>   -4.9007    1.0000 </r>
       <r>   -4.5533    1.0000 </r>
       <r>   -4.4605    1.0000 </r>
       <r>   -4.1890    1.0000 </r>
       <r>   -4.0231    1.0000 </r>
       <r>   -3.7849    1.0000 </r>
       <r>   -3.6824    1.0000 </r>
       <r>   -3.5607    1.0000 </r>
       <r>   -3.4593    1.0000 </r>
       <r>   -3.1917    1.0000 </r>
       <r>   -2.0201    0.0000 </r>
       <r>   -1.4327    0.0000 </r>
       <r>   -1.3803    0.0000 </r>
       <r>   -1.2641    0.0000 </r>
       <r>   -0.3669    0.0000 </r>
       <r>    0.6030    0.0000 </r>
       <r>    1.2918    0.0000 </r>
       <r>    1.3651    0.0000 </r>
       <r>    2.0694    0.0000 </r>
       <r>    2.2213    0.0000 </r>
       <r>    2.5398    0.0000 </r>
       <r>    2.5566    0.0000 </r>
       <r>    2.8440    0.0000 </r>
       <r>    3.1968    0.0000 </r>
       <r>    3.2779    0.0000 </r>
       <r>    3.7849    0.0000 </r>
       <r>    3.9653    0.0000 </r>
      </set>
      <set comment="kpoint 5">
       <r>  -16.5543    1.0000 </r>
       <r>  -15.9996    1.0000 </r>
       <r>  -15.8068    1.0000 </r>
       <r>  -15.6306    1.0000 </r>
       <r>  -15.4257    1.0000 </r>
       <r>  -15.2804    1.0000 </r>
[...]
        <r>  0.0002  0.0033  0.0018  0.0000  0.0000  0.0000  0.0000  0.0000  0.0000 </r>
        <r>  0.0000  0.0016  0.0001  0.0036  0.0000  0.0000  0.0000  0.0000  0.0000 </r>
        <r>  0.0005  0.0004  0.0019  0.0031  0.0000  0.0000  0.0000  0.0000  0.0000 </r>
       </set>
       <set comment="band 30">
        <r>  0.0004  0.0007  0.0002  0.0002  0.0319  0.0092  0.1334  0.0176  0.0649 </r>
        <r>  0.0003  0.0006  0.0002  0.0003  0.0219  0.0084  0.1207  0.0196  0.1092 </r>
        <r>  0.0193  0.0010  0.0094  0.0003  0.0000  0.0000  0.0000  0.0000  0.0000 </r>
        <r>  0.0304  0.0012  0.0294  0.0005  0.0001  0.0001  0.0021  0.0000  0.0000 </r>
        <r>  0.0040  0.0011  0.0019  0.0177  0.0000  0.0000  0.0000  0.0000  0.0000 </r>
        <r>  0.0043  0.0127  0.0055  0.0049  0.0000  0.0000  0.0000  0.0000  0.0000 </r>
        <r>  0.0040  0.0105  0.0021  0.0069  0.0000  0.0000  0.0000  0.0000  0.0000 </r>
        <r>  0.0051  0.0005  0.0038  0.0065  0.0000  0.0000  0.0000  0.0000  0.0000 </r>
        <r>  0.0031  0.0054  0.0083  0.0022  0.0000  0.0000  0.0000  0.0000  0.0000 </r>
        <r>  0.0049  0.0060  0.0037  0.0008  0.0000  0.0000  0.0000  0.0000  0.0000 </r>
       </set>
       <set comment="band 31">
        <r>  0.0019  0.0001  0.0001  0.0001  0.1829  0.0027  0.1732  0.0008  0.0717 </r>
        <r>  0.0019  0.0000  0.0001  0.0002  0.1764  0.0006  0.1791  0.0029  0.0710 </r>
        <r>  0.0000  0.0009  0.0000  0.0029  0.0000  0.0000  0.0000  0.0000  0.0000 </r>
        <r>  0.0000  0.0015  0.0000  0.0045  0.0000  0.0000  0.0000  0.0002  0.0000 </r>
        <r>  0.0006  0.0029  0.0018  0.0016  0.0000  0.0000  0.0000  0.0000  0.0000 </r>
        <r>  0.0000  0.0005  0.0000  0.0013  0.0000  0.0000  0.0000  0.0000  0.0000 </r>
        <r>  0.0007  0.0033  0.0017  0.0010  0.0000  0.0000  0.0000  0.0000  0.0000 </r>
        <r>  0.0006  0.0032  0.0025  0.0005  0.0000  0.0000  0.0000  0.0000  0.0000 </r>
        <r>  0.0000  0.0006  0.0000  0.0019  0.0000  0.0000  0.0000  0.0000  0.0000 </r>
        <r>  0.0007  0.0021  0.0024  0.0017  0.0000  0.0000  0.0000  0.0000  0.0000 </r>
       </set>
       <set comment="band 32">
        <r>  0.0009  0.0014  0.0001  0.0010  0.0573  0.0058  0.1146  0.0446  0.0385 </r>
        <r>  0.0008  0.0016  0.0001  0.0008  0.0814  0.0231  0.1111  0.0276  0.0213 </r>
        <r>  0.0283  0.0008  0.0051  0.0002  0.0000  0.0000  0.0000  0.0000  0.0000 </r>
        <r>  0.0352  0.0007  0.0191  0.0002  0.0009  0.0001  0.0020  0.0000  0.0003 </r>
        <r>  0.0049  0.0006  0.0036  0.0319  0.0000  0.0000  0.0000  0.0000  0.0000 </r>
        <r>  0.0014  0.0091  0.0008  0.0031  0.0000  0.0000  0.0000  0.0000  0.0000 </r>
        <r>  0.0049  0.0253  0.0037  0.0075  0.0000  0.0000  0.0000  0.0000  0.0000 </r>
        <r>  0.0034  0.0011  0.0012  0.0149  0.0000  0.0000  0.0000  0.0000  0.0000 </r>
        <r>  0.0028  0.0022  0.0003  0.0008  0.0000  0.0000  0.0000  0.0000  0.0000 </r>
        <r>  0.0033  0.0099  0.0013  0.0062  0.0000  0.0000  0.0000  0.0000  0.0000 </r>
       </set>
       <set comment="band 33">
        <r>  0.0004  0.0002  0.0012  0.0001  0.0060  0.1880  0.0319  0.0775  0.0105 </r>
        <r>  0.0004  0.0000  0.0012  0.0003  0.0110  0.1817  0.0323  0.0825  0.0055 </r>
        <r>  0.0000  0.0015  0.0000  0.0046  0.0000  0.0000  0.0000  0.0000  0.0000 </r>
        <r>  0.0000  0.0033  0.0000  0.0100  0.0012  0.0001  0.0000  0.0002  0.0035 </r>
        <r>  0.0054  0.0098  0.0069  0.0066  0.0000  0.0000  0.0000  0.0000  0.0000 </r>
        <r>  0.0000  0.0018  0.0000  0.0054  0.0000  0.0000  0.0000  0.0000  0.0000 </r>
        <r>  0.0054  0.0024  0.0070  0.0139  0.0000  0.0000  0.0000  0.0000  0.0000 </r>
        <r>  0.0039  0.0057  0.0051  0.0061  0.0000  0.0000  0.0000  0.0000  0.0000 </r>
        <r>  0.0000  0.0013  0.0000  0.0037  0.0000  0.0000  0.0000  0.0000  0.0000 </r>
        <r>  0.0039  0.0031  0.0051  0.0087  0.0000  0.0000  0.0000  0.0000  0.0000 </r>
       </set>
       <set comment="band 34">
        <r>  0.0002  0.0005  0.0002  0.0008  0.0658  0.0354  0.0021  0.0956  0.0603 </r>
        <r>  0.0002  0.0007  0.0002  0.0006  0.0806  0.0793  0.0022  0.0511  0.0461 </r>
        <r>  0.0217  0.0008  0.0085  0.0003  0.0000  0.0000  0.0000  0.0000  0.0000 </r>
        <r>  0.0272  0.0013  0.0011  0.0004  0.0001  0.0000  0.0018  0.0000  0.0000 </r>
        <r>  0.0015  0.0030  0.0079  0.0116  0.0000  0.0000  0.0000  0.0000  0.0000 </r>
        <r>  0.0043  0.0164  0.0098  0.0055  0.0000  0.0000  0.0000  0.0000  0.0000 </r>
        <r>  0.0015  0.0057  0.0080  0.0089  0.0000  0.0000  0.0000  0.0000  0.0000 </r>
        <r>  0.0048  0.0007  0.0081  0.0059  0.0000  0.0000  0.0000  0.0000  0.0000 </r>
        <r>  0.0059  0.0046  0.0018  0.0015  0.0000  0.0000  0.0000  0.0000  0.0000 </r>
        <r>  0.0049  0.0029  0.0081  0.0036  0.0000  0.0000  0.0000  0.0000  0.0000 </r>
       </set>
       <set comment="band 35">
        <r>  0.0003  0.0002  0.0000  0.0001  0.0051  0.1058  0.0054  0.1951  0.0159 </r>
        <r>  0.0003  0.0000  0.0000  0.0002  0.0081  0.0951  0.0058  0.1968  0.0120 </r>
        <r>  0.0000  0.0003  0.0000  0.0008  0.0000  0.0000  0.0000  0.0000  0.0000 </r>
        <r>  0.0000  0.0006  0.0000  0.0018  0.0001  0.0000  0.0000  0.0001  0.0002 </r>
        <r>  0.0026  0.0283  0.0024  0.0007  0.0000  0.0000  0.0000  0.0000  0.0000 </r>
        <r>  0.0000  0.0078  0.0000  0.0235  0.0000  0.0000  0.0000  0.0000  0.0000 </r>
        <r>  0.0023  0.0041  0.0017  0.0241  0.0000  0.0000  0.0000  0.0000  0.0000 </r>
        <r>  0.0020  0.0259  0.0015  0.0011  0.0000  0.0000  0.0000  0.0000  0.0000 </r>
        <r>  0.0000  0.0073  0.0000  0.0193  0.0000  0.0000  0.0000  0.0000  0.0000 </r>
        <r>  0.0017  0.0029  0.0011  0.0251  0.0000  0.0000  0.0000  0.0000  0.0000 </r>
       </set>
       <set comment="band 36">
        <r>  0.0001  0.0006  0.0002  0.0001  0.0428  0.1543  0.0191  0.0821  0.0160 </r>
        <r>  0.0001  0.0005  0.0002  0.0003  0.0274  0.0860  0.0188  0.1614  0.0325 </r>
        <r>  0.0061  0.0003  0.0001  0.0001  0.0000  0.0000  0.0000  0.0000  0.0000 </r>
        <r>  0.0059  0.0002  0.0033  0.0001  0.0005  0.0002  0.0005  0.0001  0.0002 </r>
        <r>  0.0018  0.0097  0.0074  0.0037  0.0000  0.0000  0.0000  0.0000  0.0000 </r>
        <r>  0.0046  0.0176  0.0109  0.0058  0.0000  0.0000  0.0000  0.0000  0.0000 </r>
        <r>  0.0021  0.0021  0.0080  0.0123  0.0000  0.0000  0.0000  0.0000  0.0000 </r>
        <r>  0.0022  0.0109  0.0037  0.0004  0.0000  0.0000  0.0000  0.0000  0.0000 </r>
        <r>  0.0047  0.0203  0.0137  0.0076  0.0000  0.0000  0.0000  0.0000  0.0000 </r>
        <r>  0.0026  0.0022  0.0041  0.0082  0.0000  0.0000  0.0000  0.0000  0.0000 </r>
       </set>
       <set comment="band 37">
        <r>  0.0082  0.0008  0.0033  0.0007  0.0044  0.0105  0.0060  0.0113  0.0022 </r>
        <r>  0.0082  0.0004  0.0033  0.0010  0.0046  0.0173  0.0060  0.0046  0.0019 </r>
        <r>  0.0055  0.0302  0.0077  0.0101  0.0000  0.0000  0.0000  0.0000  0.0000 </r>
        <r>  0.0039  0.0698  0.0038  0.0234  0.0070  0.0065  0.0003  0.0022  0.0023 </r>
        <r>  0.0021  0.0028  0.0054  0.0028  0.0000  0.0000  0.0000  0.0000  0.0000 </r>
        <r>  0.0163  0.0415  0.0019  0.0138  0.0000  0.0000  0.0000  0.0000  0.0000 </r>
        <r>  0.0021  0.0016  0.0054  0.0039  0.0000  0.0000  0.0000  0.0000  0.0000 </r>
        <r>  0.0017  0.0029  0.0018  0.0123  0.0000  0.0000  0.0000  0.0000  0.0000 </r>
        <r>  0.0131  0.0110  0.0082  0.0037  0.0000  0.0000  0.0000  0.0000  0.0000 </r>
        <r>  0.0016  0.0057  0.0018  0.0094  0.0000  0.0000  0.0000  0.0000  0.0000 </r>
       </set>
       <set comment="band 38">
        <r>  0.0016  0.0005  0.0006  0.0026  0.0338  0.0455  0.0008  0.0381  0.0109 </r>
        <r>  0.0016  0.0017  0.0006  0.0014  0.0184  0.0581  0.0008  0.0257  0.0264 </r>
        <r>  0.0443  0.0034  0.0517  0.0011  0.0000  0.0000  0.0000  0.0000  0.0000 </r>
        <r>  0.0093  0.0163  0.0188  0.0053  0.0012  0.0008  0.0012  0.0003  0.0004 </r>
        <r>  0.0006  0.0006  0.0024  0.0198  0.0000  0.0000  0.0000  0.0000  0.0000 </r>
        <r>  0.0043  0.0074  0.0031  0.0025  0.0000  0.0000  0.0000  0.0000  0.0000 </r>
        <r>  0.0006  0.0126  0.0024  0.0079  0.0000  0.0000  0.0000  0.0000  0.0000 </r>
        <r>  0.0032  0.0009  0.0110  0.0339  0.0000  0.0000  0.0000  0.0000  0.0000 </r>
        <r>  0.0029  0.0403  0.0049  0.0135  0.0000  0.0000  0.0000  0.0000  0.0000 </r>
        <r>  0.0032  0.0219  0.0111  0.0127  0.0000  0.0000  0.0000  0.0000  0.0000 </r>
       </set>
       <set comment="band 39">
        <r>  0.0085  0.0015  0.0023  0.0019  0.0078  0.0111  0.0126  0.0123  0.0000 </r>
        <r>  0.0086  0.0022  0.0023  0.0013  0.0016  0.0221  0.0127  0.0016  0.0064 </r>
        <r>  0.0000  0.0064  0.0000  0.0193  0.0000  0.0000  0.0000  0.0000  0.0000 </r>
        <r>  0.0000  0.0278  0.0000  0.0833  0.0022  0.0022  0.0000  0.0067  0.0068 </r>
        <r>  0.0108  0.0190  0.0018  0.0340  0.0000  0.0000  0.0000  0.0000  0.0000 </r>
        <r>  0.0000  0.0058  0.0000  0.0175  0.0000  0.0000  0.0000  0.0000  0.0000 </r>
        <r>  0.0108  0.0521  0.0018  0.0008  0.0000  0.0000  0.0000  0.0000  0.0000 </r>
        <r>  0.0054  0.0108  0.0033  0.0116  0.0000  0.0000  0.0000  0.0000  0.0000 </r>
        <r>  0.0000  0.0025  0.0000  0.0074  0.0000  0.0000  0.0000  0.0000  0.0000 </r>
        <r>  0.0053  0.0212  0.0033  0.0014  0.0000  0.0000  0.0000  0.0000  0.0000 </r>
       </set>
       <set comment="band 40">
        <r>  0.0250  0.0017  0.0045  0.0012  0.0009  0.0039  0.0111  0.0015  0.0242 </r>
        <r>  0.0251  0.0011  0.0045  0.0018  0.0184  0.0022  0.0112  0.0032  0.0066 </r>
        <r>  0.0104  0.0324  0.0060  0.0107  0.0000  0.0000  0.0000  0.0000  0.0000 </r>
        <r>  0.0044  0.0337  0.0118  0.0112  0.0058  0.0011  0.0042  0.0003  0.0019 </r>
        <r>  0.0004  0.0012  0.0026  0.0001  0.0000  0.0000  0.0000  0.0000  0.0000 </r>
        <r>  0.0138  0.0078  0.0071  0.0027  0.0000  0.0000  0.0000  0.0000  0.0000 </r>
        <r>  0.0004  0.0001  0.0026  0.0012  0.0000  0.0000  0.0000  0.0000  0.0000 </r>
        <r>  0.0017  0.0030  0.0034  0.0012  0.0000  0.0000  0.0000  0.0000  0.0000 </r>
        <r>  0.0177  0.0083  0.0009  0.0028  0.0000  0.0000  0.0000  0.0000  0.0000 </r>
        <r>  0.0018  0.0000  0.0034  0.0042  0.0000  0.0000  0.0000  0.0000  0.0000 </r>
       </set>
       <set comment="band 41">
        <r>  0.0065  0.0045  0.0000  0.0028  0.0260  0.0072  0.0055  0.0106  0.0098 </r>
        <r>  0.0066  0.0057  0.0000  0.0016  0.0157  0.0052  0.0056  0.0124  0.0201 </r>
        <r>  0.0395  0.0095  0.0170  0.0033  0.0000  0.0000  0.0000  0.0000  0.0000 </r>
        <r>  0.0198  0.0127  0.0273  0.0043  0.0026  0.0004  0.0121  0.0001  0.0009 </r>
        <r>  0.0013  0.0008  0.0090  0.0005  0.0000  0.0000  0.0000  0.0000  0.0000 </r>
        <r>  0.0015  0.0029  0.0229  0.0009  0.0000  0.0000  0.0000  0.0000  0.0000 </r>
        <r>  0.0013  0.0006  0.0091  0.0007  0.0000  0.0000  0.0000  0.0000  0.0000 </r>
        <r>  0.0005  0.0007  0.0060  0.0042  0.0000  0.0000  0.0000  0.0000  0.0000 </r>
        <r>  0.0062  0.0055  0.0222  0.0018  0.0000  0.0000  0.0000  0.0000  0.0000 </r>
        <r>  0.0005  0.0041  0.0060  0.0007  0.0000  0.0000  0.0000  0.0000  0.0000 </r>
       </set>
       <set comment="band 42">
        <r>  0.0148  0.0010  0.0018  0.0001  0.0078  0.0129  0.0064  0.0104  0.0187 </r>
        <r>  0.0145  0.0002  0.0018  0.0008  0.0124  0.0062  0.0063  0.0172  0.0142 </r>
        <r>  0.0000  0.0182  0.0000  0.0546  0.0000  0.0000  0.0000  0.0000  0.0000 </r>
        <r>  0.0000  0.0114  0.0000  0.0344  0.0021  0.0009  0.0000  0.0026  0.0063 </r>
        <r>  0.0028  0.0024  0.0009  0.0071  0.0000  0.0000  0.0000  0.0000  0.0000 </r>
        <r>  0.0000  0.0022  0.0000  0.0067  0.0000  0.0000  0.0000  0.0000  0.0000 </r>
        <r>  0.0028  0.0091  0.0008  0.0004  0.0000  0.0000  0.0000  0.0000  0.0000 </r>
        <r>  0.0101  0.0100  0.0005  0.0180  0.0000  0.0000  0.0000  0.0000  0.0000 </r>
        <r>  0.0000  0.0062  0.0000  0.0187  0.0000  0.0000  0.0000  0.0000  0.0000 </r>
        <r>  0.0101  0.0271  0.0005  0.0011  0.0000  0.0000  0.0000  0.0000  0.0000 </r>
       </set>
       <set comment="band 43">
        <r>  0.0010  0.0005  0.0008  0.0035  0.0031  0.0004  0.0047  0.0004  0.0032 </r>
        <r>  0.0010  0.0019  0.0008  0.0021  0.0013  0.0007  0.0047  0.0001  0.0050 </r>
        <r>  0.0063  0.0013  0.0031  0.0005  0.0000  0.0000  0.0000  0.0000  0.0000 </r>
        <r>  0.0031  0.0046  0.0072  0.0016  0.0012  0.0001  0.0024  0.0000  0.0004 </r>
        <r>  0.0007  0.0004  0.0020  0.0016  0.0000  0.0000  0.0000  0.0000  0.0000 </r>
        <r>  0.0009  0.0043  0.0041  0.0014  0.0000  0.0000  0.0000  0.0000  0.0000 </r>
        <r>  0.0007  0.0009  0.0020  0.0011  0.0000  0.0000  0.0000  0.0000  0.0000 </r>
        <r>  0.0007  0.0001  0.0022  0.0009  0.0000  0.0000  0.0000  0.0000  0.0000 </r>
        <r>  0.0005  0.0031  0.0020  0.0010  0.0000  0.0000  0.0000  0.0000  0.0000 </r>
        <r>  0.0007  0.0004  0.0021  0.0005  0.0000  0.0000  0.0000  0.0000  0.0000 </r>
       </set>
       <set comment="band 44">
        <r>  0.0027  0.0013  0.0018  0.0016  0.0027  0.0005  0.0023  0.0007  0.0036 </r>
        <r>  0.0026  0.0025  0.0019  0.0004  0.0024  0.0007  0.0022  0.0004  0.0038 </r>
        <r>  0.0000  0.0005  0.0000  0.0013  0.0000  0.0000  0.0000  0.0000  0.0000 </r>
        <r>  0.0000  0.0011  0.0000  0.0032  0.0003  0.0000  0.0000  0.0001  0.0008 </r>
        <r>  0.0024  0.0014  0.0102  0.0017  0.0000  0.0000  0.0000  0.0000  0.0000 </r>
        <r>  0.0000  0.0008  0.0000  0.0026  0.0000  0.0000  0.0000  0.0000  0.0000 </r>
        <r>  0.0024  0.0029  0.0103  0.0002  0.0000  0.0000  0.0000  0.0000  0.0000 </r>
        <r>  0.0004  0.0002  0.0022  0.0012  0.0000  0.0000  0.0000  0.0000  0.0000 </r>
        <r>  0.0000  0.0002  0.0000  0.0007  0.0000  0.0000  0.0000  0.0000  0.0000 </r>
        <r>  0.0005  0.0009  0.0022  0.0005  0.0000  0.0000  0.0000  0.0000  0.0000 </r>
       </set>
       <set comment="band 45">
        <r>  0.0075  0.0019  0.0103  0.0003  0.0048  0.0006  0.0062  0.0001  0.0116 </r>
        <r>  0.0073  0.0006  0.0103  0.0016  0.0092  0.0004  0.0060  0.0003  0.0076 </r>
        <r>  0.0002  0.0018  0.0023  0.0006  0.0000  0.0000  0.0000  0.0000  0.0000 </r>
        <r>  0.0005  0.0081  0.0031  0.0027  0.0025  0.0022  0.0008  0.0007  0.0008 </r>
        <r>  0.0001  0.0025  0.0001  0.0004  0.0000  0.0000  0.0000  0.0000  0.0000 </r>
        <r>  0.0012  0.0021  0.0017  0.0007  0.0000  0.0000  0.0000  0.0000  0.0000 </r>
        <r>  0.0001  0.0001  0.0001  0.0028  0.0000  0.0000  0.0000  0.0000  0.0000 </r>
        <r>  0.0003  0.0014  0.0026  0.0005  0.0000  0.0000  0.0000  0.0000  0.0000 </r>
        <r>  0.0003  0.0014  0.0090  0.0005  0.0000  0.0000  0.0000  0.0000  0.0000 </r>
        <r>  0.0003  0.0004  0.0026  0.0015  0.0000  0.0000  0.0000  0.0000  0.0000 </r>
       </set>
       <set comment="band 46">
        <r>  0.0008  0.0016  0.0021  0.0002  0.0014  0.0005  0.0036  0.0001  0.0027 </r>
        <r>  0.0009  0.0005  0.0021  0.0014  0.0020  0.0003  0.0037  0.0003  0.0020 </r>
        <r>  0.0000  0.0012  0.0000  0.0037  0.0000  0.0000  0.0000  0.0000  0.0000 </r>
        <r>  0.0000  0.0008  0.0000  0.0025  0.0000  0.0001  0.0000  0.0004  0.0001 </r>
        <r>  0.0003  0.0000  0.0001  0.0014  0.0000  0.0000  0.0000  0.0000  0.0000 </r>
        <r>  0.0000  0.0001  0.0000  0.0003  0.0000  0.0000  0.0000  0.0000  0.0000 </r>
        <r>  0.0003  0.0010  0.0001  0.0005  0.0000  0.0000  0.0000  0.0000  0.0000 </r>
        <r>  0.0021  0.0020  0.0114  0.0026  0.0000  0.0000  0.0000  0.0000  0.0000 </r>
        <r>  0.0000  0.0010  0.0000  0.0029  0.0000  0.0000  0.0000  0.0000  0.0000 </r>
        <r>  0.0021  0.0042  0.0113  0.0004  0.0000  0.0000  0.0000  0.0000  0.0000 </r>
       </set>
       <set comment="band 47">
        <r>  0.0295  0.0008  0.0012  0.0023  0.0000  0.0016  0.0028  0.0019  0.0002 </r>
        <r>  0.0297  0.0023  0.0012  0.0008  0.0002  0.0029  0.0028  0.0007  0.0000 </r>
        <r>  0.0011  0.0094  0.0095  0.0032  0.0000  0.0000  0.0000  0.0000  0.0000 </r>
        <r>  0.0020  0.0060  0.0067  0.0020  0.0001  0.0007  0.0063  0.0003  0.0000 </r>
        <r>  0.0002  0.0017  0.0041  0.0004  0.0000  0.0000  0.0000  0.0000  0.0000 </r>
        <r>  0.0001  0.0002  0.0165  0.0001  0.0000  0.0000  0.0000  0.0000  0.0000 </r>
        <r>  0.0002  0.0002  0.0041  0.0018  0.0000  0.0000  0.0000  0.0000  0.0000 </r>
        <r>  0.0004  0.0028  0.0029  0.0017  0.0000  0.0000  0.0000  0.0000  0.0000 </r>
        <r>  0.0011  0.0011  0.0075  0.0004  0.0000  0.0000  0.0000  0.0000  0.0000 </r>
        <r>  0.0004  0.0001  0.0028  0.0044  0.0000  0.0000  0.0000  0.0000  0.0000 </r>
       </set>
       <set comment="band 48">
        <r>  0.0035  0.0011  0.0025  0.0012  0.0021  0.0001  0.0002  0.0001  0.0011 </r>
        <r>  0.0035  0.0002  0.0025  0.0021  0.0002  0.0000  0.0002  0.0001  0.0030 </r>
        <r>  0.0005  0.0007  0.0002  0.0002  0.0000  0.0000  0.0000  0.0000  0.0000 </r>
        <r>  0.0017  0.0002  0.0004  0.0001  0.0011  0.0018  0.0006  0.0006  0.0003 </r>
        <r>  0.0006  0.0000  0.0021  0.0001  0.0000  0.0000  0.0000  0.0000  0.0000 </r>
        <r>  0.0001  0.0014  0.0033  0.0004  0.0000  0.0000  0.0000  0.0000  0.0000 </r>
        <r>  0.0006  0.0001  0.0020  0.0000  0.0000  0.0000  0.0000  0.0000  0.0000 </r>
        <r>  0.0001  0.0005  0.0006  0.0004  0.0000  0.0000  0.0000  0.0000  0.0000 </r>
        <r>  0.0005  0.0008  0.0013  0.0003  0.0000  0.0000  0.0000  0.0000  0.0000 </r>
        <r>  0.0001  0.0007  0.0006  0.0002  0.0000  0.0000  0.0000  0.0000  0.0000 </r>
       </set>
      </set>
     </set>
    </set>
   </array>
  </projected>
 </calculation>
 <structure name="finalpos" >
  <crystal>
   <varray name="basis" >
    <v>       5.99988924       0.00000005       0.00000000 </v>
    <v>       2.99994428       5.19605631       0.00000000 </v>
    <v>       0.00000000       0.00000000      21.74602297 </v>
   </varray>
   <i name="volume">    677.94884092 </i>
   <varray name="rec_basis" >
    <v>       0.16666974      -0.09622681       0.00000000 </v>
    <v>      -0.00000000       0.19245365      -0.00000000 </v>
    <v>      -0.00000000      -0.00000000       0.04598542 </v>
   </varray>
  </crystal>
  <varray name="positions" >
   <v>       0.33333300       0.33333300       0.49992500 </v>
   <v>       0.66666700       0.66666700       0.50007500 </v>
   <v>       0.00000000      -0.00000000       0.44698965 </v>
   <v>       0.00000000       0.00000000       0.55178400 </v>
   <v>       0.62342190       0.00016897       0.57085999 </v>
   <v>       0.00016897       0.37641012       0.57085999 </v>
   <v>       0.37641012       0.62342190       0.57085999 </v>
   <v>       0.35343118       0.99983167       0.42928096 </v>
   <v>       0.99983167       0.64673615       0.42928096 </v>
   <v>       0.64673615       0.35343118       0.42928096 </v>
  </varray>
  <varray name="selective"  type="logical" >
   <v type="logical" >  F  F  F </v>
   <v type="logical" >  F  F  F </v>
   <v type="logical" >  T  T  T </v>
   <v type="logical" >  F  F  F </v>
   <v type="logical" >  T  T  T </v>
   <v type="logical" >  T  T  T </v>
   <v type="logical" >  T  T  T </v>
   <v type="logical" >  T  T  T </v>
   <v type="logical" >  T  T  T </v>
   <v type="logical" >  T  T  T </v>
  </varray>
  <nose>
   <v>      -3.00000000       0.00000000       0.00010000       0.00010000 </v>
  </nose>
 </structure>
</modeling>
