unknown system                          
           1
     6.907777   -0.000000    0.000000
     3.453888    5.982310    0.000000
     0.000000    0.000000   23.444588
   Cr   Si   Ge   S 
   2   1   1   6
Direct configuration=     1
   0.33333300  0.33333300  0.49992500
   0.66666700  0.66666700  0.50007500
   0.00000000  0.00000000  0.44821600
   0.00000000  0.00000000  0.55178400
   0.62635700  0.00042000  0.57375200
   0.00042000  0.37322400  0.57375200
   0.37322400  0.62635700  0.57375200
   0.37364300  0.99958000  0.42624800
   0.99958000  0.62677600  0.42624800
   0.62677600  0.37364300  0.42624800
unknown system                          
           1
     5.944881    0.000000   -0.000000
     2.972440    5.148418   -0.000000
    -0.000000   -0.000000   21.645426
   Cr   Si   Ge   S 
   2   1   1   6
Direct configuration=     2
   0.33333300  0.33333300  0.49992500
   0.66666700  0.66666700  0.50007500
  -0.00000000  0.00000000  0.44685217
   0.00000000  0.00000000  0.55178400
   0.63285155  0.00038581  0.57044744
   0.00038581  0.36676365  0.57044744
   0.36676365  0.63285155  0.57044744
   0.36368718  0.99962552  0.42968241
   0.99962552  0.63668629  0.42968241
   0.63668629  0.36368718  0.42968241
unknown system                          
           1
     5.995440    0.000000   -0.000000
     2.997720    5.192203   -0.000000
    -0.000000   -0.000000   21.739894
   Cr   Si   Ge   S 
   2   1   1   6
Direct configuration=     3
   0.33333300  0.33333300  0.49992500
   0.66666700  0.66666700  0.50007500
  -0.00000000  0.00000000  0.44692974
   0.00000000  0.00000000  0.55178400
   0.63245530  0.00038789  0.57063537
   0.00038789  0.36715781  0.57063537
   0.36715781  0.63245530  0.57063537
   0.36429460  0.99962275  0.42948709
   0.99962275  0.63608165  0.42948709
   0.63608165  0.36429460  0.42948709
unknown system                          
           1
     5.988061    0.000000    0.000000
     2.994030    5.185813    0.000000
    -0.000000    0.000000   21.776237
   Cr   Si   Ge   S 
   2   1   1   6
Direct configuration=     4
   0.33333300  0.33333300  0.49992500
   0.66666700  0.66666700  0.50007500
   0.00000000  0.00000000  0.44639035
   0.00000000  0.00000000  0.55178400
   0.62845114  0.00029980  0.57081442
   0.00029980  0.37125007  0.57081442
   0.37125007  0.62845114  0.57081442
   0.35881945  0.99970765  0.42951220
   0.99970765  0.64147190  0.42951220
   0.64147190  0.35881945  0.42951220
unknown system                          
           1
     5.982461    0.000000    0.000000
     2.991230    5.180963    0.000000
     0.000000    0.000000   21.803818
   Cr   Si   Ge   S 
   2   1   1   6
Direct configuration=     5
   0.33333300  0.33333300  0.49992500
   0.66666700  0.66666700  0.50007500
   0.00000000 -0.00000000  0.44598167
   0.00000000  0.00000000  0.55178400
   0.62540851  0.00023286  0.57095008
   0.00023286  0.37435964  0.57095008
   0.37435964  0.62540851  0.57095008
   0.35465907  0.99977217  0.42953123
   0.99977217  0.64556776  0.42953123
   0.64556776  0.35465907  0.42953123
unknown system                          
           1
     6.011000    0.000000    0.000000
     3.005499    5.205678    0.000000
     0.000000    0.000000   21.755534
   Cr   Si   Ge   S 
   2   1   1   6
Direct configuration=     6
   0.33333300  0.33333300  0.49992500
   0.66666700  0.66666700  0.50007500
   0.00000000 -0.00000000  0.44707071
   0.00000000  0.00000000  0.55178400
   0.62308908  0.00016835  0.57091066
   0.00016835  0.37674356  0.57091066
   0.37674356  0.62308908  0.57091066
   0.35341220  0.99982835  0.42927365
   0.99982835  0.64675845  0.42927365
   0.64675845  0.35341220  0.42927365
unknown system                          
           1
     6.003831    0.000000    0.000000
     3.001915    5.199470    0.000000
     0.000000    0.000000   21.767663
   Cr   Si   Ge   S 
   2   1   1   6
Direct configuration=     7
   0.33333300  0.33333300  0.49992500
   0.66666700  0.66666700  0.50007500
   0.00000000 -0.00000000  0.44679653
   0.00000000  0.00000000  0.55178400
   0.62366896  0.00018448  0.57092058
   0.00018448  0.37614756  0.57092058
   0.37614756  0.62366896  0.57092058
   0.35372393  0.99981430  0.42933850
   0.99981430  0.64646077  0.42933850
   0.64646077  0.35372393  0.42933850
unknown system                          
           1
     5.992663    0.000000    0.000000
     2.996331    5.189798    0.000000
     0.000000    0.000000   21.706346
   Cr   Si   Ge   S 
   2   1   1   6
Direct configuration=     8
   0.33333300  0.33333300  0.49992500
   0.66666700  0.66666700  0.50007500
   0.00000000 -0.00000000  0.44734658
   0.00000000  0.00000000  0.55178400
   0.62296652  0.00014040  0.57074800
   0.00014040  0.37689408  0.57074800
   0.37689408  0.62296652  0.57074800
   0.35289157  0.99986369  0.42917463
   0.99986369  0.64724375  0.42917463
   0.64724375  0.35289157  0.42917463
unknown system                          
           1
     5.999889    0.000000    0.000000
     2.999944    5.196056    0.000000
     0.000000    0.000000   21.746023
   Cr   Si   Ge   S 
   2   1   1   6
Direct configuration=     9
   0.33333300  0.33333300  0.49992500
   0.66666700  0.66666700  0.50007500
   0.00000000 -0.00000000  0.44698965
   0.00000000  0.00000000  0.55178400
   0.62342190  0.00016897  0.57085999
   0.00016897  0.37641012  0.57085999
   0.37641012  0.62342190  0.57085999
   0.35343118  0.99983167  0.42928096
   0.99983167  0.64673615  0.42928096
   0.64673615  0.35343118  0.42928096
