       N       E                     dE             d eps       ncg     rms          rms(c)
DAV:   1     0.403799540953E+03    0.40380E+03   -0.16367E+04   960   0.817E+02
DAV:   2     0.354661646120E+02   -0.36833E+03   -0.34017E+03  1168   0.163E+02
DAV:   3    -0.497855816504E+02   -0.85252E+02   -0.81022E+02  1360   0.804E+01
DAV:   4    -0.550670143525E+02   -0.52814E+01   -0.51900E+01  1328   0.286E+01
DAV:   5    -0.552193003926E+02   -0.15229E+00   -0.15207E+00  1264   0.442E+00    0.287E+01
DAV:   6    -0.118043441610E+03   -0.62824E+02   -0.34781E+02  1312   0.733E+01    0.625E+01
DAV:   7    -0.422635447219E+02    0.75780E+02   -0.14266E+02  1104   0.987E+01    0.175E+01
DAV:   8    -0.446128654733E+02   -0.23493E+01   -0.12289E+01  1488   0.131E+01    0.109E+01
DAV:   9    -0.457045512123E+02   -0.10917E+01   -0.66664E-01  1504   0.483E+00    0.711E+00
DAV:  10    -0.467763851094E+02   -0.10718E+01   -0.10207E+00  1536   0.725E+00    0.312E+00
DAV:  11    -0.471748180173E+02   -0.39843E+00   -0.33215E-01  1488   0.392E+00    0.346E+00
DAV:  12    -0.474152423082E+02   -0.24042E+00   -0.39701E-02  1264   0.110E+00    0.286E+00
DAV:  13    -0.476675748232E+02   -0.25233E+00   -0.85363E-02  1264   0.173E+00    0.107E+00
DAV:  14    -0.477372425506E+02   -0.69668E-01   -0.51832E-02  1392   0.134E+00    0.518E-01
DAV:  15    -0.477404108559E+02   -0.31683E-02   -0.13113E-02  1360   0.649E-01    0.266E-01
DAV:  16    -0.477397355064E+02    0.67535E-03   -0.27786E-03  1136   0.311E-01    0.869E-02
DAV:  17    -0.477398342352E+02   -0.98729E-04   -0.35866E-04  1024   0.941E-02
   1 F= -.47739834E+02 E0= -.47739834E+02  d E =-.477398E+02  mag=     6.0032
       N       E                     dE             d eps       ncg     rms          rms(c)
DAV:   1    -0.737773160721E+02   -0.26038E+02   -0.65325E+02  1280   0.136E+02    0.287E+01
DAV:   2    -0.579017624959E+02    0.15876E+02   -0.58806E+01  1408   0.486E+01    0.162E+01
DAV:   3    -0.565118562917E+02    0.13899E+01   -0.38563E+01  1456   0.643E+01    0.133E+01
DAV:   4    -0.531199436010E+02    0.33919E+01   -0.14908E+01  1424   0.276E+01    0.343E+00
DAV:   5    -0.530755195265E+02    0.44424E-01   -0.82435E-01  1376   0.499E+00    0.131E+00
DAV:   6    -0.530694129159E+02    0.61066E-02   -0.11323E-01  1408   0.210E+00    0.677E-01
DAV:   7    -0.530699991268E+02   -0.58621E-03   -0.16382E-02  1200   0.737E-01    0.303E-01
DAV:   8    -0.530703654547E+02   -0.36633E-03   -0.53265E-03  1104   0.398E-01    0.151E-01
DAV:   9    -0.530716239085E+02   -0.12585E-02   -0.24135E-03  1312   0.310E-01    0.879E-02
DAV:  10    -0.530716503690E+02   -0.26461E-04   -0.18683E-03  1136   0.290E-01    0.645E-02
DAV:  11    -0.530713872072E+02    0.26316E-03   -0.16467E-03  1120   0.179E-01    0.634E-02
DAV:  12    -0.530705424679E+02    0.84474E-03   -0.13028E-03  1152   0.104E-01    0.364E-02
DAV:  13    -0.530683377561E+02    0.22047E-02   -0.15803E-03  1120   0.894E-02    0.320E-02
DAV:  14    -0.530676602484E+02    0.67751E-03   -0.11489E-04   912   0.430E-02    0.284E-02
DAV:  15    -0.530665557871E+02    0.11045E-02   -0.61481E-05   880   0.404E-02    0.241E-02
DAV:  16    -0.530657598177E+02    0.79597E-03   -0.43842E-05   784   0.375E-02    0.229E-02
DAV:  17    -0.530651572429E+02    0.60257E-03   -0.24286E-04  1008   0.594E-02    0.123E-02
DAV:  18    -0.530649467059E+02    0.21054E-03   -0.27055E-04  1168   0.563E-02    0.790E-03
DAV:  19    -0.530651429848E+02   -0.19628E-03   -0.40468E-05   864   0.326E-02    0.467E-03
DAV:  20    -0.530654846930E+02   -0.34171E-03   -0.23534E-05   816   0.202E-02    0.311E-03
DAV:  21    -0.530656891157E+02   -0.20442E-03   -0.19485E-05   816   0.132E-02    0.138E-03
DAV:  22    -0.530657758756E+02   -0.86760E-04   -0.86288E-06   832   0.837E-03
   2 F= -.53065776E+02 E0= -.53065776E+02  d E =-.532594E+01  mag=     5.9992
       N       E                     dE             d eps       ncg     rms          rms(c)
DAV:   1    -0.532116988197E+02   -0.14601E+00   -0.31507E+00  1328   0.980E+00    0.183E+00
DAV:   2    -0.531323549339E+02    0.79344E-01   -0.20568E-01  1312   0.358E+00    0.932E-01
DAV:   3    -0.531213649027E+02    0.10990E-01   -0.69476E-02  1376   0.240E+00    0.690E-01
DAV:   4    -0.531123773896E+02    0.89875E-02   -0.38358E-02  1312   0.202E+00    0.197E-01
DAV:   5    -0.531112425995E+02    0.11348E-02   -0.38426E-03  1296   0.694E-01    0.809E-02
DAV:   6    -0.531110149413E+02    0.22766E-03   -0.51728E-04  1040   0.104E-01    0.346E-02
DAV:   7    -0.531110003454E+02    0.14596E-04   -0.52200E-05   784   0.539E-02
   3 F= -.53111000E+02 E0= -.53111000E+02  d E =-.537117E+01  mag=     5.9997
       N       E                     dE             d eps       ncg     rms          rms(c)
DAV:   1    -0.531332376502E+02   -0.22223E-01   -0.13670E+00   976   0.378E+00    0.446E-01
DAV:   2    -0.531391699223E+02   -0.59323E-02   -0.11189E-01  1312   0.229E+00    0.450E-01
DAV:   3    -0.531356314493E+02    0.35385E-02   -0.10283E-02  1328   0.120E+00    0.180E-01
DAV:   4    -0.531341852444E+02    0.14462E-02   -0.23838E-03  1376   0.222E-01    0.767E-02
DAV:   5    -0.531338051725E+02    0.38007E-03   -0.11897E-03  1040   0.110E-01    0.329E-02
DAV:   6    -0.531337180914E+02    0.87081E-04   -0.93856E-05   688   0.771E-02
   4 F= -.53133718E+02 E0= -.53133718E+02  d E =-.227177E-01  mag=     5.9999
       N       E                     dE             d eps       ncg     rms          rms(c)
DAV:   1    -0.531493297994E+02   -0.15525E-01   -0.93237E+00   960   0.986E+00    0.114E+00
DAV:   2    -0.531928354886E+02   -0.43506E-01   -0.76450E-01  1312   0.603E+00    0.116E+00
DAV:   3    -0.531691051612E+02    0.23730E-01   -0.64389E-02  1312   0.304E+00    0.463E-01
DAV:   4    -0.531598165764E+02    0.92886E-02   -0.15305E-02  1264   0.537E-01    0.201E-01
DAV:   5    -0.531566935188E+02    0.31231E-02   -0.80906E-03  1120   0.283E-01    0.864E-02
DAV:   6    -0.531559968653E+02    0.69665E-03   -0.81560E-04  1296   0.200E-01    0.674E-02
DAV:   7    -0.531550239511E+02    0.97291E-03   -0.44387E-04  1264   0.129E-01    0.343E-02
DAV:   8    -0.531550668246E+02   -0.42874E-04   -0.17076E-04   912   0.562E-02
   5 F= -.53155067E+02 E0= -.53155067E+02  d E =-.440665E-01  mag=     6.0000
       N       E                     dE             d eps       ncg     rms          rms(c)
DAV:   1    -0.531863812991E+02   -0.31357E-01   -0.22352E+00  1216   0.562E+00    0.879E-01
DAV:   2    -0.531780232058E+02    0.83581E-02   -0.17072E-01  1264   0.264E+00    0.590E-01
DAV:   3    -0.531710066176E+02    0.70166E-02   -0.22570E-02  1264   0.177E+00    0.367E-01
DAV:   4    -0.531660398096E+02    0.49668E-02   -0.13487E-02  1376   0.904E-01    0.929E-02
DAV:   5    -0.531656997235E+02    0.34009E-03   -0.23862E-03  1312   0.260E-01    0.581E-02
DAV:   6    -0.531656372611E+02    0.62462E-04   -0.14507E-04   800   0.771E-02
   6 F= -.53165637E+02 E0= -.53165637E+02  d E =-.105704E-01  mag=     6.0000
       N       E                     dE             d eps       ncg     rms          rms(c)
DAV:   1    -0.532437918088E+02   -0.78092E-01   -0.88380E+00  1264   0.112E+01    0.172E+00
DAV:   2    -0.532186739850E+02    0.25118E-01   -0.67011E-01  1424   0.533E+00    0.118E+00
DAV:   3    -0.531914719654E+02    0.27202E-01   -0.87936E-02  1360   0.350E+00    0.721E-01
DAV:   4    -0.531699954841E+02    0.21476E-01   -0.52289E-02  1408   0.176E+00    0.180E-01
DAV:   5    -0.531662076838E+02    0.37878E-02   -0.87277E-03  1312   0.477E-01    0.112E-01
DAV:   6    -0.531640877383E+02    0.21199E-02   -0.51600E-04  1056   0.127E-01    0.735E-02
DAV:   7    -0.531598581978E+02    0.42295E-02   -0.10103E-03  1104   0.115E-01    0.495E-02
DAV:   8    -0.531587881674E+02    0.10700E-02   -0.51105E-04  1008   0.160E-01    0.443E-02
DAV:   9    -0.531573091191E+02    0.14790E-02   -0.29850E-03  1056   0.161E-01    0.316E-02
DAV:  10    -0.531549672973E+02    0.23418E-02   -0.19275E-03  1088   0.148E-01    0.336E-02
DAV:  11    -0.531523236033E+02    0.26437E-02   -0.55471E-04  1008   0.993E-02    0.246E-02
DAV:  12    -0.531523183649E+02    0.52383E-05   -0.24320E-04   976   0.841E-02
   7 F= -.53152318E+02 E0= -.53152318E+02  d E =0.274846E-02  mag=     6.0000
       N       E                     dE             d eps       ncg     rms          rms(c)
DAV:   1    -0.531704054824E+02   -0.18082E-01   -0.14702E+00   992   0.450E+00    0.714E-01
DAV:   2    -0.531645737009E+02    0.58318E-02   -0.11588E-01  1328   0.214E+00    0.478E-01
DAV:   3    -0.531603982645E+02    0.41754E-02   -0.15741E-02  1280   0.149E+00    0.299E-01
DAV:   4    -0.531568538819E+02    0.35444E-02   -0.89367E-03  1376   0.744E-01    0.762E-02
DAV:   5    -0.531574888244E+02   -0.63494E-03   -0.17431E-03  1152   0.220E-01    0.443E-02
DAV:   6    -0.531579224028E+02   -0.43358E-03   -0.16721E-04   944   0.752E-02    0.301E-02
DAV:   7    -0.531596221854E+02   -0.16998E-02   -0.52530E-04  1056   0.828E-02    0.190E-02
DAV:   8    -0.531601506027E+02   -0.52842E-03   -0.17307E-04  1008   0.764E-02    0.145E-02
DAV:   9    -0.531614201440E+02   -0.12695E-02   -0.57922E-04  1104   0.674E-02    0.816E-03
DAV:  10    -0.531620194794E+02   -0.59934E-03   -0.20186E-04  1088   0.402E-02    0.669E-03
DAV:  11    -0.531623486561E+02   -0.32918E-03   -0.85258E-05   992   0.268E-02    0.388E-03
DAV:  12    -0.531625458265E+02   -0.19717E-03   -0.58279E-05   912   0.203E-02    0.205E-03
DAV:  13    -0.531626556125E+02   -0.10979E-03   -0.17536E-05   896   0.118E-02    0.138E-03
DAV:  14    -0.531627357921E+02   -0.80180E-04   -0.74107E-06   672   0.870E-03
   8 F= -.53162736E+02 E0= -.53162736E+02  d E =-.766897E-02  mag=     6.0000
       N       E                     dE             d eps       ncg     rms          rms(c)
DAV:   1    -0.532002162276E+02   -0.37561E-01   -0.20135E+00  1184   0.528E+00    0.893E-01
DAV:   2    -0.531808995817E+02    0.19317E-01   -0.11910E-01  1360   0.175E+00    0.517E-01
DAV:   3    -0.531751816151E+02    0.57180E-02   -0.20418E-02  1392   0.151E+00    0.427E-01
DAV:   4    -0.531683693665E+02    0.68122E-02   -0.12303E-02  1280   0.107E+00    0.120E-01
DAV:   5    -0.531676234588E+02    0.74591E-03   -0.18903E-03  1312   0.297E-01    0.581E-02
DAV:   6    -0.531680835758E+02   -0.46012E-03   -0.44521E-04  1040   0.106E-01    0.367E-02
DAV:   7    -0.531689048763E+02   -0.82130E-03   -0.49347E-04   992   0.902E-02    0.194E-02
DAV:   8    -0.531694176774E+02   -0.51280E-03   -0.18982E-04  1040   0.522E-02    0.153E-02
DAV:   9    -0.531702958317E+02   -0.87815E-03   -0.52146E-04  1072   0.667E-02    0.123E-02
DAV:  10    -0.531707142594E+02   -0.41843E-03   -0.52458E-04  1088   0.598E-02    0.105E-02
DAV:  11    -0.531706859870E+02    0.28272E-04   -0.19591E-04  1104   0.324E-02
   9 F= -.53170686E+02 E0= -.53170686E+02  d E =-.795019E-02  mag=     6.0000
       N       E                     dE             d eps       ncg     rms          rms(c)
DAV:   1    -0.531728952579E+02   -0.21810E-02   -0.10743E-01  1040   0.122E+00    0.208E-01
DAV:   2    -0.531718897463E+02    0.10055E-02   -0.64620E-03  1408   0.417E-01    0.123E-01
DAV:   3    -0.531715262382E+02    0.36351E-03   -0.11597E-03  1328   0.363E-01    0.101E-01
DAV:   4    -0.531711867401E+02    0.33950E-03   -0.67698E-04  1200   0.249E-01    0.278E-02
DAV:   5    -0.531711301167E+02    0.56623E-04   -0.77062E-05   736   0.642E-02
  10 F= -.53171130E+02 E0= -.53171130E+02  d E =-.839432E-02  mag=     6.0000
       N       E                     dE             d eps       ncg     rms          rms(c)
DAV:   1    -0.531783588926E+02   -0.71722E-02   -0.38408E-01  1264   0.285E+00    0.498E-01
DAV:   2    -0.531733022680E+02    0.50566E-02   -0.25808E-02  1248   0.884E-01    0.235E-01
DAV:   3    -0.531724849767E+02    0.81729E-03   -0.38632E-03  1280   0.496E-01    0.167E-01
DAV:   4    -0.531719901327E+02    0.49484E-03   -0.22551E-03  1312   0.499E-01    0.640E-02
DAV:   5    -0.531718930017E+02    0.97131E-04   -0.33242E-04   976   0.216E-01
  11 F= -.53171893E+02 E0= -.53171893E+02  d E =-.762885E-03  mag=     6.0000
       N       E                     dE             d eps       ncg     rms          rms(c)
DAV:   1    -0.531729935029E+02   -0.10034E-02   -0.51054E-02  1264   0.106E+00    0.177E-01
DAV:   2    -0.531723553849E+02    0.63812E-03   -0.31208E-03  1216   0.301E-01    0.801E-02
DAV:   3    -0.531722697243E+02    0.85661E-04   -0.43614E-04  1072   0.150E-01
  12 F= -.53172270E+02 E0= -.53172270E+02  d E =-.113961E-02  mag=     6.0000
