 vasp.5.4.4.18Apr17-6-g9f103f2a35 (build May  1 2020 15:48:39) complex           
 executed on             LinuxGNU date 2020.06.17  09:08:51
 running on   16 total cores
 distrk:  each k-point on   16 cores,    1 groups
 distr:  one band on NCORES_PER_BAND=   1 cores,   16 groups


--------------------------------------------------------------------------------------------------------


 INCAR:
 POTCAR:   PAW_PBE Cr 06Sep2000                   
 POTCAR:   PAW_PBE Ge 05Jan2001                   
 POTCAR:    PAW_PBE S 17Jan2003                   

 ----------------------------------------------------------------------------- 
|                                                                             |
|           W    W    AA    RRRRR   N    N  II  N    N   GGGG   !!!           |
|           W    W   A  A   R    R  NN   N  II  NN   N  G    G  !!!           |
|           W    W  A    A  R    R  N N  N  II  N N  N  G       !!!           |
|           W WW W  AAAAAA  RRRRR   N  N N  II  N  N N  G  GGG   !            |
|           WW  WW  A    A  R   R   N   NN  II  N   NN  G    G                |
|           W    W  A    A  R    R  N    N  II  N    N   GGGG   !!!           |
|                                                                             |
|      For optimal performance we recommend to set                            |
|        NCORE= 4 - approx SQRT( number of cores)                             |
|      NCORE specifies how many cores store one orbital (NPAR=cpu/NCORE).     |
|      This setting can  greatly improve the performance of VASP for DFT.     |
|      The default,   NCORE=1            might be grossly inefficient         |
|      on modern multi-core architectures or massively parallel machines.     |
|      Do your own testing !!!!                                               |
|      Unfortunately you need to use the default for GW and RPA calculations. |
|      (for HF NCORE is supported but not extensively tested yet)             |
|                                                                             |
 ----------------------------------------------------------------------------- 


 ----------------------------------------------------------------------------- 
|                                                                             |
|  ADVICE TO THIS USER RUNNING 'VASP/VAMP'   (HEAR YOUR MASTER'S VOICE ...):  |
|                                                                             |
|      You have switched on vdW-DFT.                                          |
|      This routine was written and supplied by Jiri Klimes.                  |
|      We recommed that you carefully read and cite the following             |
|      publication                                                            |
|      J. Klimes, D.R. Bowler, A. Michelides                                  |
|        J. Phys.: Cond Matt. 22 022201 (2010)                                |
|      J. Klimes, D.R. Bowler, A. Michelides                                  |
|        Phys. Rev. B. 83, 195131 (2011)                                      |
|      and references therein.                                                |
|                                                                             |
 ----------------------------------------------------------------------------- 

 POTCAR:   PAW_PBE Cr 06Sep2000                   
   VRHFIN =Cr : d5 s1                                                           
   LEXCH  = PE                                                                  
   EATOM  =   276.9744 eV,   20.3570 Ry                                         
                                                                                
   TITEL  = PAW_PBE Cr 06Sep2000                                                
   LULTRA =        F    use ultrasoft PP ?                                      
   IUNSCR =        1    unscreen: 0-lin 1-nonlin 2-no                           
   RPACOR =    2.080    partial core radius                                     
   POMASS =   51.996; ZVAL   =    6.000    mass and valenz                      
   RCORE  =    2.500    outmost cutoff radius                                   
   RWIGS  =    2.500; RWIGS  =    1.323    wigner-seitz radius (au A)           
   ENMAX  =  227.082; ENMIN  =  170.311 eV                                      
   RCLOC  =    1.721    cutoff for local pot                                    
   LCOR   =        T    correct aug charges                                     
   LPAW   =        T    paw PP                                                  
   EAUG   =  402.108                                                            
   DEXC   =    -.035                                                            
   RMAX   =    3.060    core radius for proj-oper                               
   RAUG   =    1.300    factor for augmentation sphere                          
   RDEP   =    2.609    radius for radial grids                                 
   QCUT   =   -4.085; QGAM   =    8.171    optimization parameters              
                                                                                
   Description                                                                  
     l     E      TYP  RCUT    TYP  RCUT                                        
     2   .000     23  2.500                                                     
     2   .000     23  2.500                                                     
     0   .000     23  2.500                                                     
     0   .000     23  2.500                                                     
     1  -.400     23  2.500                                                     
     1  2.000     23  2.500                                                     
     3   .000      7   .000                                                     
  local pseudopotential read in
  partial core-charges read in
  atomic valenz-charges read in
  non local Contribution for L=           2  read in
    real space projection operators read in
  non local Contribution for L=           2  read in
    real space projection operators read in
  non local Contribution for L=           0  read in
    real space projection operators read in
  non local Contribution for L=           0  read in
    real space projection operators read in
  non local Contribution for L=           1  read in
    real space projection operators read in
  non local Contribution for L=           1  read in
    real space projection operators read in
    PAW grid and wavefunctions read in

   number of l-projection  operators is LMAX  =           6
   number of lm-projection operators is LMMAX =          18

 POTCAR:   PAW_PBE Ge 05Jan2001                   
   VRHFIN =Ge: s2p2                                                             
   LEXCH  = PE                                                                  
   EATOM  =   104.9960 eV,    7.7170 Ry                                         
                                                                                
   TITEL  = PAW_PBE Ge 05Jan2001                                                
   LULTRA =        F    use ultrasoft PP ?                                      
   IUNSCR =        1    unscreen: 0-lin 1-nonlin 2-no                           
   RPACOR =    2.170    partial core radius                                     
   POMASS =   72.610; ZVAL   =    4.000    mass and valenz                      
   RCORE  =    2.300    outmost cutoff radius                                   
   RWIGS  =    2.300; RWIGS  =    1.217    wigner-seitz radius (au A)           
   ENMAX  =  173.807; ENMIN  =  130.355 eV                                      
   ICORE  =        3    local potential                                         
   LCOR   =        T    correct aug charges                                     
   LPAW   =        T    paw PP                                                  
   EAUG   =  385.843                                                            
   DEXC   =    -.138                                                            
   RMAX   =    3.497    core radius for proj-oper                               
   RAUG   =    1.300    factor for augmentation sphere                          
   RDEP   =    2.318    radius for radial grids                                 
   QCUT   =   -3.574; QGAM   =    7.148    optimization parameters              
                                                                                
   Description                                                                  
     l     E      TYP  RCUT    TYP  RCUT                                        
     0   .000     23  2.300                                                     
     0   .000     23  2.300                                                     
     1   .000     23  2.300                                                     
     1   .000     23  2.300                                                     
     2   .000     23  2.300                                                     
     3  -.100      7  2.300                                                     
  local pseudopotential read in
  partial core-charges read in
  atomic valenz-charges read in
  non local Contribution for L=           0  read in
    real space projection operators read in
  non local Contribution for L=           0  read in
    real space projection operators read in
  non local Contribution for L=           1  read in
    real space projection operators read in
  non local Contribution for L=           1  read in
    real space projection operators read in
  non local Contribution for L=           2  read in
    real space projection operators read in
    PAW grid and wavefunctions read in

   number of l-projection  operators is LMAX  =           5
   number of lm-projection operators is LMMAX =          13

 POTCAR:    PAW_PBE S 17Jan2003                   
   VRHFIN =S : s2p4                                                             
   LEXCH  = PE                                                                  
   EATOM  =   276.8230 eV,   20.3459 Ry                                         
                                                                                
   TITEL  = PAW_PBE S 17Jan2003                                                 
   LULTRA =        F    use ultrasoft PP ?                                      
   IUNSCR =        1    unscreen: 0-lin 1-nonlin 2-no                           
   RPACOR =    1.500    partial core radius                                     
   POMASS =   32.066; ZVAL   =    6.000    mass and valenz                      
   RCORE  =    1.900    outmost cutoff radius                                   
   RWIGS  =    2.200; RWIGS  =    1.164    wigner-seitz radius (au A)           
   ENMAX  =  280.000; ENMIN  =  194.016 eV                                      
   ICORE  =        2    local potential                                         
   LCOR   =        T    correct aug charges                                     
   LPAW   =        T    paw PP                                                  
   EAUG   =  335.092                                                            
   DEXC   =     .000                                                            
   RMAX   =    2.867    core radius for proj-oper                               
   RAUG   =    1.300    factor for augmentation sphere                          
   RDEP   =    1.954    radius for radial grids                                 
   QCUT   =   -4.360; QGAM   =    8.721    optimization parameters              
                                                                                
   Description                                                                  
     l     E      TYP  RCUT    TYP  RCUT                                        
     0   .000     23  1.900                                                     
     0   .000     23  1.900                                                     
     1   .000     23  1.900                                                     
     1   .000     23  1.900                                                     
     2   .000     23  1.900                                                     
  local pseudopotential read in
  partial core-charges read in
  atomic valenz-charges read in
  non local Contribution for L=           0  read in
    real space projection operators read in
  non local Contribution for L=           0  read in
    real space projection operators read in
  non local Contribution for L=           1  read in
    real space projection operators read in
  non local Contribution for L=           1  read in
    real space projection operators read in
    PAW grid and wavefunctions read in

   number of l-projection  operators is LMAX  =           4
   number of lm-projection operators is LMMAX =           8

 Optimization of the real space projectors (new method)

 maximal supplied QI-value         = 15.12
 optimisation between [QCUT,QGAM] = [ 11.64, 23.28] = [ 37.95,151.78] Ry 
 Optimized for a Real-space Cutoff    1.49 Angstroem

   l    n(q)    QCUT    max X(q) W(low)/X(q) W(high)/X(q)  e(spline) 
   2      9    11.641     4.777    0.25E-04    0.21E-05    0.63E-07
   2      9    11.641    31.132    0.13E-03    0.22E-03    0.64E-06
   0     10    11.641    20.416    0.11E-04    0.74E-05    0.19E-07
   0     10    11.641    45.408    0.10E-03    0.85E-04    0.30E-06
   1     10    11.641     7.848    0.22E-04    0.23E-04    0.56E-07
   1     10    11.641     9.895    0.85E-04    0.54E-04    0.16E-06
 Optimization of the real space projectors (new method)

 maximal supplied QI-value         = 16.25
 optimisation between [QCUT,QGAM] = [ 11.54, 23.24] = [ 37.28,151.24] Ry 
 Optimized for a Real-space Cutoff    1.28 Angstroem

   l    n(q)    QCUT    max X(q) W(low)/X(q) W(high)/X(q)  e(spline) 
   0      9    11.539     8.651    0.22E-04    0.16E-04    0.10E-07
   0      9    11.539    33.192    0.11E-03    0.16E-03    0.65E-07
   1      8    11.539     5.899    0.37E-04    0.28E-04    0.43E-07
   1      8    11.539    27.289    0.22E-03    0.28E-04    0.14E-06
   2      8    11.539     4.673    0.11E-03    0.18E-03    0.58E-07
 Optimization of the real space projectors (new method)

 maximal supplied QI-value         = 19.84
 optimisation between [QCUT,QGAM] = [ 11.51, 23.22] = [ 37.09,150.92] Ry 
 Optimized for a Real-space Cutoff    1.21 Angstroem

   l    n(q)    QCUT    max X(q) W(low)/X(q) W(high)/X(q)  e(spline) 
   0      8    11.508     5.487    0.18E-04    0.22E-05    0.47E-08
   0      8    11.508    85.627    0.96E-04    0.18E-03    0.54E-07
   1      8    11.508     3.530    0.17E-04    0.28E-04    0.21E-07
   1      8    11.508    42.714    0.18E-03    0.63E-04    0.92E-07

 ----------------------------------------------------------------------------- 
|                                                                             |
|  ADVICE TO THIS USER RUNNING 'VASP/VAMP'   (HEAR YOUR MASTER'S VOICE ...):  |
|                                                                             |
|      You enforced a specific xc-type in the INCAR file,                     |
|      a different type was found on the POTCAR file                          |
|          I HOPE YOU KNOW, WHAT YOU ARE  DOING                               |
|                                                                             |
 ----------------------------------------------------------------------------- 

 PAW_PBE Cr 06Sep2000                   :
 energy of atom  1       EATOM= -276.9744
 kinetic energy error for atom=    0.0010 (will be added to EATOM!!)
 PAW_PBE Ge 05Jan2001                   :
 energy of atom  2       EATOM= -104.9960
 kinetic energy error for atom=    0.0002 (will be added to EATOM!!)
  PAW_PBE S 17Jan2003                   :
 energy of atom  3       EATOM= -276.8230
 kinetic energy error for atom=    0.0016 (will be added to EATOM!!)


 POSCAR: Cr2 Ge2 S6                              
  positions in direct lattice
  velocities in cartesian coordinates
  No initial velocities read in
 exchange correlation table for  LEXCH =       42
   RHO(1)=    0.500       N(1)  =     2000
   RHO(2)=  100.500       N(2)  =     4000



--------------------------------------------------------------------------------------------------------


 ion  position               nearest neighbor table
   1  0.333  0.333  0.500-   6 2.78   5 2.78   7 2.78   8 2.78  10 2.78   9 2.78
   2  0.667  0.667  0.500-   9 2.78   8 2.78  10 2.78   5 2.78   7 2.78   6 2.78
   3  0.000  0.000  0.448-   4 2.43   8 2.63  10 2.63   9 2.63
   4  0.000  0.000  0.552-   3 2.43   5 2.63   7 2.63   6 2.63
   5  0.626  0.000  0.574-   4 2.63   1 2.78   2 2.78
   6  0.000  0.373  0.574-   4 2.63   1 2.78   2 2.78
   7  0.373  0.626  0.574-   4 2.63   1 2.78   2 2.78
   8  0.374  1.000  0.426-   3 2.63   2 2.78   1 2.78
   9  1.000  0.627  0.426-   3 2.63   2 2.78   1 2.78
  10  0.627  0.374  0.426-   3 2.63   2 2.78   1 2.78

  LATTYP: Found a hexagonal cell.
 ALAT       =     6.9077769333
 C/A-ratio  =     3.3939410937
  
  Lattice vectors:
  
 A1 = (   3.4538890000,  -5.9823100000,   0.0000000000)
 A2 = (  -6.9077770000,   0.0000000000,   0.0000000000)
 A3 = (   0.0000000000,   0.0000000000, -23.4445880000)


Analysis of symmetry for initial positions (statically):
=====================================================================
 Subroutine PRICEL returns:
 Original cell was already a primitive cell.
 

 Routine SETGRP: Setting up the symmetry group for a 
 hexagonal supercell.


 Subroutine GETGRP returns: Found  6 space group operations
 (whereof  6 operations were pure point group operations)
 out of a pool of 24 trial point group operations.


The static configuration has the point symmetry S_6 .


Analysis of symmetry for dynamics (positions and initial velocities):
=====================================================================
 Subroutine PRICEL returns:
 Original cell was already a primitive cell.
 

 Routine SETGRP: Setting up the symmetry group for a 
 hexagonal supercell.


 Subroutine GETGRP returns: Found  6 space group operations
 (whereof  6 operations were pure point group operations)
 out of a pool of 24 trial point group operations.


The dynamic configuration has the point symmetry S_6 .


Analysis of constrained symmetry for selective dynamics:
=====================================================================
 Subroutine PRICEL returns:
 Original cell was already a primitive cell.
 

 Routine SETGRP: Setting up the symmetry group for a 
 hexagonal supercell.


 Subroutine GETGRP returns: Found  6 space group operations
 (whereof  6 operations were pure point group operations)
 out of a pool of 24 trial point group operations.


The constrained configuration has the point symmetry S_6 .


Analysis of structural, dynamic, and magnetic symmetry:
=====================================================================
 Subroutine PRICEL returns:
 Original cell was already a primitive cell.
 

 Routine SETGRP: Setting up the symmetry group for a 
 hexagonal supercell.


 Subroutine GETGRP returns: Found  6 space group operations
 (whereof  6 operations were pure point group operations)
 out of a pool of 24 trial point group operations.


The magnetic configuration has the point symmetry S_6 .


 Subroutine INISYM returns: Found  6 space group operations
 (whereof  6 operations are pure point group operations),
 and found     1 'primitive' translations



 KPOINTS: Kpoints from vasprun.xml                

Automatic generation of k-mesh.
Space group operators:
 irot       det(A)        alpha          n_x          n_y          n_z        tau_x        tau_y        tau_z
    1     1.000000     0.000000     1.000000     0.000000     0.000000     0.000000     0.000000     0.000000
    2    -1.000000     0.000000     1.000000     0.000000     0.000000     0.000000     0.000000     0.000000
    3     1.000000   120.000000     0.000000     0.000000     1.000000     0.000000     0.000000     0.000000
    4    -1.000000   120.000000     0.000000     0.000000     1.000000     0.000000     0.000000     0.000000
    5     1.000000   120.000000     0.000000     0.000000    -1.000000     0.000000     0.000000     0.000000
    6    -1.000000   120.000000     0.000000     0.000000    -1.000000     0.000000     0.000000     0.000000
 
 Subroutine IBZKPT returns following result:
 ===========================================
 
 Found      5 irreducible k-points:
 
 Following reciprocal coordinates:
            Coordinates               Weight
  0.000000  0.000000  0.000000      1.000000
  0.200000  0.000000  0.000000      6.000000
  0.400000  0.000000  0.000000      6.000000
  0.400000  0.200000  0.000000      6.000000
 -0.400000  0.200000  0.000000      6.000000
 
 Following cartesian coordinates:
            Coordinates               Weight
  0.000000  0.000000  0.000000      1.000000
  0.028953 -0.016716  0.000000      6.000000
  0.057906 -0.033432  0.000000      6.000000
  0.057906  0.000000  0.000000      6.000000
 -0.057906  0.066864  0.000000      6.000000
 
 TETIRR: Found     15 inequivalent tetrahedra from      150


--------------------------------------------------------------------------------------------------------




 Dimension of arrays:
   k-points           NKPTS =      5   k-points in BZ     NKDIM =      5   number of bands    NBANDS=     48
   number of dos      NEDOS =    301   number of ions     NIONS =     10
   non local maximal  LDIM  =      6   non local SUM 2l+1 LMDIM =     18
   total plane-waves  NPLWV = 524880
   max r-space proj   IRMAX =   7543   max aug-charges    IRDMAX=  29641
   dimension x,y,z NGX =    54 NGY =   54 NGZ =  180
   dimension x,y,z NGXF=   108 NGYF=  108 NGZF=  360
   support grid    NGXF=   108 NGYF=  108 NGZF=  360
   ions per type =               2   2   6
   NGX,Y,Z   is equivalent  to a cutoff of  13.00, 13.00, 12.76 a.u.
   NGXF,Y,Z  is equivalent  to a cutoff of  25.99, 25.99, 25.53 a.u.

 SYSTEM =  unknown system                          
 POSCAR =  Cr2 Ge2 S6                              

 Startparameter for this run:
   NWRITE =      2    write-flag & timer
   PREC   = accura    normal or accurate (medium, high low for compatibility)
   ISTART =      0    job   : 0-new  1-cont  2-samecut
   ICHARG =      2    charge: 1-file 2-atom 10-const
   ISPIN  =      2    spin polarized calculation?
   LNONCOLLINEAR =      F non collinear calculations
   LSORBIT =      F    spin-orbit coupling
   INIWAV =      1    electr: 0-lowe 1-rand  2-diag
   LASPH  =      F    aspherical Exc in radial PAW
   METAGGA=      F    non-selfconsistent MetaGGA calc.

 Electronic Relaxation 1
   ENCUT  =  520.0 eV  38.22 Ry    6.18 a.u.  12.84 12.84 43.59*2*pi/ulx,y,z
   ENINI  =  520.0     initial cutoff
   ENAUG  =  402.1 eV  augmentation charge cutoff
   NELM   =    400;   NELMIN=  2; NELMDL=  0     # of ELM steps 
   EDIFF  = 0.1E-03   stopping-criterion for ELM
   LREAL  =      T    real-space projection
   NLSPLINE    = F    spline interpolate recip. space projectors
   LCOMPAT=      F    compatible to vasp.4.4
   GGA_COMPAT  = T    GGA compatible to vasp.4.4-vasp.4.6
   LMAXPAW     = -100 max onsite density
   LMAXMIX     =    2 max onsite mixed and CHGCAR
   VOSKOWN=      0    Vosko Wilk Nusair interpolation
   ROPT   =   -0.00025  -0.00025  -0.00025
 Ionic relaxation
   EDIFFG = 0.1E-02   stopping-criterion for IOM
   NSW    =     99    number of steps for IOM
   NBLOCK =      1;   KBLOCK =     99    inner block; outer block 
   IBRION =      2    ionic relax: 0-MD 1-quasi-New 2-CG
   NFREE  =      1    steps in history (QN), initial steepest desc. (CG)
   ISIF   =      3    stress and relaxation
   IWAVPR =     11    prediction:  0-non 1-charg 2-wave 3-comb
   ISYM   =      2    0-nonsym 1-usesym 2-fastsym
   LCORR  =      T    Harris-Foulkes like correction to forces

   POTIM  = 0.5000    time-step for ionic-motion
   TEIN   =    0.0    initial temperature
   TEBEG  =    0.0;   TEEND  =   0.0 temperature during run
   SMASS  =  -3.00    Nose mass-parameter (am)
   estimated Nose-frequenzy (Omega)   =  0.10E-29 period in steps =****** mass=  -0.109E-26a.u.
   SCALEE = 1.0000    scale energy and forces
   NPACO  =    256;   APACO  = 16.0  distance and # of slots for P.C.
   PSTRESS=    0.0 pullay stress

  Mass of Ions in am
   POMASS =  52.00 72.61 32.07
  Ionic Valenz
   ZVAL   =   6.00  4.00  6.00
  Atomic Wigner-Seitz radii
   RWIGS  =  -1.00 -1.00 -1.00
  virtual crystal weights 
   VCA    =   1.00  1.00  1.00
   NELECT =      56.0000    total number of electrons
   NUPDOWN=      -1.0000    fix difference up-down

 DOS related values:
   EMIN   =  10.00;   EMAX   =-10.00  energy-range for DOS
   EFERMI =   0.00
   ISMEAR =    -5;   SIGMA  =   0.05  broadening in eV -4-tet -1-fermi 0-gaus

 Electronic relaxation 2 (details)
   IALGO  =     38    algorithm
   LDIAG  =      T    sub-space diagonalisation (order eigenvalues)
   LSUBROT=      F    optimize rotation matrix (better conditioning)
   TURBO    =      0    0=normal 1=particle mesh
   IRESTART =      0    0=no restart 2=restart with 2 vectors
   NREBOOT  =      0    no. of reboots
   NMIN     =      0    reboot dimension
   EREF     =   0.00    reference energy to select bands
   IMIX   =      4    mixing-type and parameters
     AMIX     =   0.40;   BMIX     =  1.00
     AMIX_MAG =   1.60;   BMIX_MAG =  1.00
     AMIN     =   0.01
     WC   =   100.;   INIMIX=   1;  MIXPRE=   1;  MAXMIX= -45

 Intra band minimization:
   WEIMIN = 0.0010     energy-eigenvalue tresh-hold
   EBREAK =  0.52E-06  absolut break condition
   DEPER  =   0.30     relativ break condition  

   TIME   =   0.40     timestep for ELM

  volume/ion in A,a.u.               =      96.88       653.80
  Fermi-wavevector in a.u.,A,eV,Ry     =   0.632976  1.196152  5.451299  0.400659
  Thomas-Fermi vector in A             =   1.696476

 Write flags
   LWAVE        =      F    write WAVECAR
   LDOWNSAMPLE  =      F    k-point downsampling of WAVECAR
   LCHARG       =      T    write CHGCAR
   LVTOT        =      F    write LOCPOT, total local potential
   LVHAR        =      F    write LOCPOT, Hartree potential only
   LELF         =      F    write electronic localiz. function (ELF)
   LORBIT       =     11    0 simple, 1 ext, 2 COOP (PROOUT), +10 PAW based schemes


 Dipole corrections
   LMONO  =      F    monopole corrections only (constant potential shift)
   LDIPOL =      F    correct potential (dipole corrections)
   IDIPOL =      0    1-x, 2-y, 3-z, 4-all directions 
   EPSILON=  1.0000000 bulk dielectric constant

 Exchange correlation treatment:
   GGA     =    BO    GGA type
   LEXCH   =    42    internal setting for exchange type
   VOSKOWN=      0    Vosko Wilk Nusair interpolation
   LHFCALC =     F    Hartree Fock is set to
   LHFONE  =     F    Hartree Fock one center treatment
   AEXX    =    0.0000 exact exchange contribution

 vdW DFT:
   LUSE_VDW   =     T    switch on vdW DFT
   Zab_VDW    =-.8491    correlation parameter
   PARAM1     =0.1833
   PARAM2     =0.2200
   PARAM3     =0.0000
   -- rVV10 --
   BPARAM     = 6.3000
   CPARAM     = 0.0093

 Linear response parameters
   LEPSILON=     F    determine dielectric tensor
   LRPA    =     F    only Hartree local field effects (RPA)
   LNABLA  =     F    use nabla operator in PAW spheres
   LVEL    =     F    velocity operator in full k-point grid
   LINTERFAST=   F  fast interpolation
   KINTER  =     0    interpolate to denser k-point grid
   CSHIFT  =0.1000    complex shift for real part using Kramers Kronig
   OMEGAMAX=  -1.0    maximum frequency
   DEG_THRESHOLD= 0.2000000E-02 threshold for treating states as degnerate
   RTIME   =   -0.100 relaxation time in fs
  (WPLASMAI=    0.000 imaginary part of plasma frequency in eV, 0.658/RTIME)
   DFIELD  = 0.0000000 0.0000000 0.0000000 field for delta impulse in time

 Orbital magnetization related:
   ORBITALMAG=     F  switch on orbital magnetization
   LCHIMAG   =     F  perturbation theory with respect to B field
   DQ        =  0.001000  dq finite difference perturbation B field
   LLRAUG    =     F  two centre corrections for induced B field



--------------------------------------------------------------------------------------------------------


 conjugate gradient relaxation of ions
   using selective dynamics as specified on POSCAR
 charge density and potential will be updated during run
 spin polarized calculation
 Variant of blocked Davidson
 Davidson routine will perform the subspace rotation
 perform sub-space diagonalisation
    after iterative eigenvector-optimisation
 modified Broyden-mixing scheme, WC =      100.0
 initial mixing is a Kerker type mixing with AMIX =  0.4000 and BMIX =      1.0000
 Hartree-type preconditioning will be used
 using additional bands           20
 real space projection scheme for non local part
 use partial core corrections
 calculate Harris-corrections to forces   (improved forces if not selfconsistent)
 use gradient corrections 
 use of overlap-Matrix (Vanderbilt PP)
 Fermi weights with tetrahedron method with Bloechl corrections


--------------------------------------------------------------------------------------------------------


  energy-cutoff  :      520.00
  volume of cell :      968.84
      direct lattice vectors                 reciprocal lattice vectors
     6.907777000 -0.000000000  0.000000000     0.144764372 -0.083579742  0.000000000
     3.453888000  5.982310000  0.000000000     0.000000000  0.167159509 -0.000000000
     0.000000000  0.000000000 23.444588000    -0.000000000  0.000000000  0.042653767

  length of vectors
     6.907777000  6.907776433 23.444588000     0.167159495  0.167159509  0.042653767



 k-points in units of 2pi/SCALE and weight: Kpoints from vasprun.xml                
   0.00000000  0.00000000  0.00000000       0.040
   0.02895287 -0.01671595  0.00000000       0.240
   0.05790575 -0.03343190  0.00000000       0.240
   0.05790575  0.00000000  0.00000000       0.240
  -0.05790575  0.06686380  0.00000000       0.240

 k-points in reciprocal lattice and weights: Kpoints from vasprun.xml                
   0.00000000  0.00000000  0.00000000       0.040
   0.20000000  0.00000000  0.00000000       0.240
   0.40000000  0.00000000  0.00000000       0.240
   0.40000000  0.20000000  0.00000000       0.240
  -0.40000000  0.20000000  0.00000000       0.240

 position of ions in fractional coordinates (direct lattice) 
   0.33333300  0.33333300  0.49992500
   0.66666700  0.66666700  0.50007500
   0.00000000  0.00000000  0.44821600
   0.00000000  0.00000000  0.55178400
   0.62635700  0.00042000  0.57375200
   0.00042000  0.37322400  0.57375200
   0.37322400  0.62635700  0.57375200
   0.37364300  0.99958000  0.42624800
   0.99958000  0.62677600  0.42624800
   0.62677600  0.37364300  0.42624800

 position of ions in cartesian coordinates  (Angst):
   3.45388488  1.99410134 11.72053566
   6.90778012  3.98820866 11.72405234
   0.00000000  0.00000000 10.50823946
   0.00000000  0.00000000 12.93634854
   4.32818511  0.00251257 13.45137925
   1.29197516  2.23274167 13.45137925
   4.74151509  3.74706174 13.45137925
   6.03347989  5.97979743  9.99320875
   9.06968984  3.74956833  9.99320875
   5.62014991  2.23524826  9.99320875



--------------------------------------------------------------------------------------------------------


 k-point  1 :   0.0000 0.0000 0.0000  plane waves:   26073
 k-point  2 :   0.2000 0.0000 0.0000  plane waves:   26070
 k-point  3 :   0.4000 0.0000 0.0000  plane waves:   26086
 k-point  4 :   0.4000 0.2000 0.0000  plane waves:   26085
 k-point  5 :  -0.4000 0.2000 0.0000  plane waves:   26115

 maximum and minimum number of plane-waves per node :     26115    26070

 maximum number of plane-waves:     26115
 maximum index in each direction: 
   IXMAX=   13   IYMAX=   12   IZMAX=   43
   IXMIN=  -13   IYMIN=  -13   IZMIN=  -43


 serial   3D FFT for wavefunctions
 parallel 3D FFT for charge:
    minimum data exchange during FFTs selected (reduces bandwidth)


 total amount of memory used by VASP MPI-rank0   126596. kBytes
=======================================================================

   base      :      30000. kBytes
   nonlr-proj:       6301. kBytes
   fftplans  :      11247. kBytes
   grid      :      66142. kBytes
   one-center:        311. kBytes
   wavefun   :      12595. kBytes

     INWAV:  cpu time    0.0000: real time    0.0004
 Broyden mixing: mesh for mixing (old mesh)
   NGX = 25   NGY = 25   NGZ = 87
  (NGX  =108   NGY  =108   NGZ  =360)
  gives a total of  54375 points

 initial charge density was supplied:
 charge density of overlapping atoms calculated
 number of electron      56.0000000 magnetization      14.8000000
 keeping initial charge density in first step


--------------------------------------------------------------------------------------------------------


 Maximum index for non-local projection operator         7247
 Maximum index for augmentation-charges         2133 (set IRDMAX)


--------------------------------------------------------------------------------------------------------


 First call to EWALD:  gamma=   0.179
 Maximum number of real-space cells 4x 4x 1
 Maximum number of reciprocal cells 2x 2x 6

    FEWALD:  cpu time    0.0000: real time    0.0014


--------------------------------------- Iteration      1(   1)  ---------------------------------------


vdW kernel read from vdw_kernel.bindat
  0.0000  0.2424  0.5071  0.7962  1.1119  1.4567  1.8333  2.2446  2.6937  3.1842
  3.7199  4.3049  4.9438  5.6415  6.4036  7.2358  8.1446  9.1372 10.2212 11.4050
 12.6979 14.1099 15.6519 17.3360 19.1751 21.1837 23.3773 25.7729 28.3892 31.2465
 34.3669 37.7748 41.4965 45.5611 50.0000

    POTLOK:  cpu time   52.5600: real time   53.0841
    SETDIJ:  cpu time    0.0440: real time    0.0450
     EDDAV:  cpu time   22.2840: real time   22.5250
 BZINTS: Fermi energy:  5.454622; 56.000000 electrons
         Band energy: -22.161593;  BLOECHL correction: -0.028272
       DOS:  cpu time    0.0040: real time    0.0051
    --------------------------------------------
      LOOP:  cpu time   74.8920: real time   75.6592

 eigenvalue-minimisations  :   960
 total energy-change (2. order) : 0.4037995E+03  (-0.1636675E+04)
 number of electron      56.0000000 magnetization      14.8000000
 augmentation part       56.0000000 magnetization      14.8000000

 Free energy of the ion-electron system (eV)
  ---------------------------------------------------
  alpha Z        PSCENC =        22.20798002
  Ewald energy   TEWEN  =      5985.89955237
  -Hartree energ DENC   =     -8125.49843055
  -exchange      EXHF   =         0.00000000
  -V(xc)+E(xc)   XCENC  =        15.21379330
  PAW double counting   =      1126.22877738    -1033.17360965
  entropy T*S    EENTRO =         0.00000000
  eigenvalues    EBANDS =       -22.16159330
  atomic energy  EATOM  =      2435.08307139
  Solvation  Ediel_sol  =         0.00000000
  ---------------------------------------------------
  free energy    TOTEN  =       403.79954095 eV

  energy without entropy =      403.79954095  energy(sigma->0) =      403.79954095


--------------------------------------------------------------------------------------------------------




--------------------------------------- Iteration      1(   2)  ---------------------------------------


     EDDAV:  cpu time   26.7760: real time   26.8870
 BZINTS: Fermi energy: -1.382564; 56.000000 electrons
         Band energy:-390.494970;  BLOECHL correction: -0.101019
       DOS:  cpu time    0.0040: real time    0.0048
    --------------------------------------------
      LOOP:  cpu time   26.7800: real time   26.8918

 eigenvalue-minimisations  :  1168
 total energy-change (2. order) :-0.3683334E+03  (-0.3401667E+03)
 number of electron      56.0000000 magnetization      14.8000000
 augmentation part       56.0000000 magnetization      14.8000000

 Free energy of the ion-electron system (eV)
  ---------------------------------------------------
  alpha Z        PSCENC =        22.20798002
  Ewald energy   TEWEN  =      5985.89955237
  -Hartree energ DENC   =     -8125.49843055
  -exchange      EXHF   =         0.00000000
  -V(xc)+E(xc)   XCENC  =        15.21379330
  PAW double counting   =      1126.22877738    -1033.17360965
  entropy T*S    EENTRO =         0.00000000
  eigenvalues    EBANDS =      -390.49496964
  atomic energy  EATOM  =      2435.08307139
  Solvation  Ediel_sol  =         0.00000000
  ---------------------------------------------------
  free energy    TOTEN  =        35.46616461 eV

  energy without entropy =       35.46616461  energy(sigma->0) =       35.46616461


--------------------------------------------------------------------------------------------------------




--------------------------------------- Iteration      1(   3)  ---------------------------------------


     EDDAV:  cpu time   30.7840: real time   30.8752
 BZINTS: Fermi energy: -2.771639; 56.000000 electrons
         Band energy:-475.746716;  BLOECHL correction: -0.006410
       DOS:  cpu time    0.0040: real time    0.0050
    --------------------------------------------
      LOOP:  cpu time   30.7880: real time   30.8802

 eigenvalue-minimisations  :  1360
 total energy-change (2. order) :-0.8525175E+02  (-0.8102178E+02)
 number of electron      56.0000000 magnetization      14.8000000
 augmentation part       56.0000000 magnetization      14.8000000

 Free energy of the ion-electron system (eV)
  ---------------------------------------------------
  alpha Z        PSCENC =        22.20798002
  Ewald energy   TEWEN  =      5985.89955237
  -Hartree energ DENC   =     -8125.49843055
  -exchange      EXHF   =         0.00000000
  -V(xc)+E(xc)   XCENC  =        15.21379330
  PAW double counting   =      1126.22877738    -1033.17360965
  entropy T*S    EENTRO =         0.00000000
  eigenvalues    EBANDS =      -475.74671590
  atomic energy  EATOM  =      2435.08307139
  Solvation  Ediel_sol  =         0.00000000
  ---------------------------------------------------
  free energy    TOTEN  =       -49.78558165 eV

  energy without entropy =      -49.78558165  energy(sigma->0) =      -49.78558165


--------------------------------------------------------------------------------------------------------




--------------------------------------- Iteration      1(   4)  ---------------------------------------


     EDDAV:  cpu time   30.0720: real time   30.1372
 BZINTS: Fermi energy: -2.804693; 56.000000 electrons
         Band energy:-481.028149;  BLOECHL correction: -0.008218
       DOS:  cpu time    0.0040: real time    0.0052
    --------------------------------------------
      LOOP:  cpu time   30.0760: real time   30.1424

 eigenvalue-minimisations  :  1328
 total energy-change (2. order) :-0.5281433E+01  (-0.5190043E+01)
 number of electron      56.0000000 magnetization      14.8000000
 augmentation part       56.0000000 magnetization      14.8000000

 Free energy of the ion-electron system (eV)
  ---------------------------------------------------
  alpha Z        PSCENC =        22.20798002
  Ewald energy   TEWEN  =      5985.89955237
  -Hartree energ DENC   =     -8125.49843055
  -exchange      EXHF   =         0.00000000
  -V(xc)+E(xc)   XCENC  =        15.21379330
  PAW double counting   =      1126.22877738    -1033.17360965
  entropy T*S    EENTRO =         0.00000000
  eigenvalues    EBANDS =      -481.02814861
  atomic energy  EATOM  =      2435.08307139
  Solvation  Ediel_sol  =         0.00000000
  ---------------------------------------------------
  free energy    TOTEN  =       -55.06701435 eV

  energy without entropy =      -55.06701435  energy(sigma->0) =      -55.06701435


--------------------------------------------------------------------------------------------------------




--------------------------------------- Iteration      1(   5)  ---------------------------------------


     EDDAV:  cpu time   28.6120: real time   28.6970
 BZINTS: Fermi energy: -2.806389; 56.000000 electrons
         Band energy:-481.180435;  BLOECHL correction: -0.008105
       DOS:  cpu time    0.0040: real time    0.0063
    CHARGE:  cpu time    1.9200: real time    1.9184
    MIXING:  cpu time    0.0400: real time    0.0396
    --------------------------------------------
      LOOP:  cpu time   30.5760: real time   30.6613

 eigenvalue-minimisations  :  1264
 total energy-change (2. order) :-0.1522860E+00  (-0.1520679E+00)
 number of electron      55.9999996 magnetization      13.6420376
 augmentation part       -4.6582525 magnetization      11.6337979

 Broyden mixing:
  rms(total) = 0.28737E+01    rms(broyden)= 0.28737E+01
  rms(prec ) = 0.31288E+01
  weight for this iteration     100.00

 Free energy of the ion-electron system (eV)
  ---------------------------------------------------
  alpha Z        PSCENC =        22.20798002
  Ewald energy   TEWEN  =      5985.89955237
  -Hartree energ DENC   =     -8125.49843055
  -exchange      EXHF   =         0.00000000
  -V(xc)+E(xc)   XCENC  =        15.21379330
  PAW double counting   =      1126.22877738    -1033.17360965
  entropy T*S    EENTRO =         0.00000000
  eigenvalues    EBANDS =      -481.18043465
  atomic energy  EATOM  =      2435.08307139
  Solvation  Ediel_sol  =         0.00000000
  ---------------------------------------------------
  free energy    TOTEN  =       -55.21930039 eV

  energy without entropy =      -55.21930039  energy(sigma->0) =      -55.21930039


--------------------------------------------------------------------------------------------------------




--------------------------------------- Iteration      1(   6)  ---------------------------------------


    POTLOK:  cpu time   52.5320: real time   52.5718
    SETDIJ:  cpu time    0.0840: real time    0.0848
     EDDAV:  cpu time   29.5280: real time   29.6459
 BZINTS: Fermi energy: -5.136083; 56.000000 electrons
         Band energy:-585.571571;  BLOECHL correction: -0.027630
       DOS:  cpu time    0.0040: real time    0.0068
    CHARGE:  cpu time    1.8840: real time    1.8888
    MIXING:  cpu time    0.0440: real time    0.0433
    --------------------------------------------
      LOOP:  cpu time   84.0760: real time   84.2413

 eigenvalue-minimisations  :  1312
 total energy-change (2. order) :-0.6282414E+02  (-0.3478136E+02)
 number of electron      55.9999993 magnetization      13.3281333
 augmentation part        8.9941803 magnetization       9.8519221

 Broyden mixing:
  rms(total) = 0.62532E+01    rms(broyden)= 0.62531E+01
  rms(prec ) = 0.70412E+01
  weight for this iteration     100.00

 eigenvalues of (default mixing * dielectric matrix)
  average eigenvalue GAMMA=   0.3358
  0.3358

 Free energy of the ion-electron system (eV)
  ---------------------------------------------------
  alpha Z        PSCENC =        22.20798002
  Ewald energy   TEWEN  =      5985.89955237
  -Hartree energ DENC   =     -8092.94509696
  -exchange      EXHF   =         0.00000000
  -V(xc)+E(xc)   XCENC  =        14.79139654
  PAW double counting   =      1071.19069354     -968.69946735
  entropy T*S    EENTRO =         0.00000000
  eigenvalues    EBANDS =      -585.57157115
  atomic energy  EATOM  =      2435.08307139
  Solvation  Ediel_sol  =         0.00000000
  ---------------------------------------------------
  free energy    TOTEN  =      -118.04344161 eV

  energy without entropy =     -118.04344161  energy(sigma->0) =     -118.04344161


--------------------------------------------------------------------------------------------------------




--------------------------------------- Iteration      1(   7)  ---------------------------------------


    POTLOK:  cpu time   51.2880: real time   51.7139
    SETDIJ:  cpu time    0.0440: real time    0.0440
     EDDAV:  cpu time   25.1920: real time   25.4189
 BZINTS: Fermi energy: -3.752945; 56.000000 electrons
         Band energy:-467.045293;  BLOECHL correction: -0.002161
       DOS:  cpu time    0.0040: real time    0.0066
    CHARGE:  cpu time    1.9120: real time    1.9102
    MIXING:  cpu time    0.0440: real time    0.0437
    --------------------------------------------
      LOOP:  cpu time   78.4840: real time   79.1372

 eigenvalue-minimisations  :  1104
 total energy-change (2. order) : 0.7577990E+02  (-0.1426586E+02)
 number of electron      55.9999996 magnetization      12.8779256
 augmentation part       -2.5482205 magnetization       9.7799380

 Broyden mixing:
  rms(total) = 0.17543E+01    rms(broyden)= 0.17542E+01
  rms(prec ) = 0.18221E+01
  weight for this iteration     100.00

 eigenvalues of (default mixing * dielectric matrix)
  average eigenvalue GAMMA=   0.4024
  0.5693  0.2356

 Free energy of the ion-electron system (eV)
  ---------------------------------------------------
  alpha Z        PSCENC =        22.20798002
  Ewald energy   TEWEN  =      5985.89955237
  -Hartree energ DENC   =     -8124.88049564
  -exchange      EXHF   =         0.00000000
  -V(xc)+E(xc)   XCENC  =        13.58076261
  PAW double counting   =      1137.23344995    -1044.34257231
  entropy T*S    EENTRO =         0.00000000
  eigenvalues    EBANDS =      -467.04529311
  atomic energy  EATOM  =      2435.08307139
  Solvation  Ediel_sol  =         0.00000000
  ---------------------------------------------------
  free energy    TOTEN  =       -42.26354472 eV

  energy without entropy =      -42.26354472  energy(sigma->0) =      -42.26354472


--------------------------------------------------------------------------------------------------------




--------------------------------------- Iteration      1(   8)  ---------------------------------------


    POTLOK:  cpu time   51.3520: real time   51.5900
    SETDIJ:  cpu time    0.0440: real time    0.0448
     EDDAV:  cpu time   33.1040: real time   33.2045
 BZINTS: Fermi energy: -4.571556; 56.000000 electrons
         Band energy:-474.985999;  BLOECHL correction:  0.000000
       DOS:  cpu time    0.0000: real time    0.0033
    CHARGE:  cpu time    1.8960: real time    1.9290
    MIXING:  cpu time    0.0400: real time    0.0421
    --------------------------------------------
      LOOP:  cpu time   86.4360: real time   86.8137

 eigenvalue-minimisations  :  1488
 total energy-change (2. order) :-0.2349321E+01  (-0.1228852E+01)
 number of electron      55.9999995 magnetization      12.5314095
 augmentation part       -1.1458554 magnetization      10.4314008

 Broyden mixing:
  rms(total) = 0.10917E+01    rms(broyden)= 0.10916E+01
  rms(prec ) = 0.10979E+01
  weight for this iteration     100.00

 eigenvalues of (default mixing * dielectric matrix)
  average eigenvalue GAMMA=   0.4279
  0.5177  0.5177  0.2482

 Free energy of the ion-electron system (eV)
  ---------------------------------------------------
  alpha Z        PSCENC =        22.20798002
  Ewald energy   TEWEN  =      5985.89955237
  -Hartree energ DENC   =     -8119.51773822
  -exchange      EXHF   =         0.00000000
  -V(xc)+E(xc)   XCENC  =        13.20168720
  PAW double counting   =      1126.21504362    -1032.71646271
  entropy T*S    EENTRO =         0.00000000
  eigenvalues    EBANDS =      -474.98599914
  atomic energy  EATOM  =      2435.08307139
  Solvation  Ediel_sol  =         0.00000000
  ---------------------------------------------------
  free energy    TOTEN  =       -44.61286547 eV

  energy without entropy =      -44.61286547  energy(sigma->0) =      -44.61286547


--------------------------------------------------------------------------------------------------------




--------------------------------------- Iteration      1(   9)  ---------------------------------------


    POTLOK:  cpu time   51.4400: real time   51.5973
    SETDIJ:  cpu time    0.0440: real time    0.0440
     EDDAV:  cpu time   33.2040: real time   33.3183
 BZINTS: Fermi energy: -4.596099; 56.000000 electrons
         Band energy:-474.158533;  BLOECHL correction:  0.000000
       DOS:  cpu time    0.0000: real time    0.0033
    CHARGE:  cpu time    1.7960: real time    1.8667
    MIXING:  cpu time    0.0400: real time    0.0417
    --------------------------------------------
      LOOP:  cpu time   86.5240: real time   86.8713

 eigenvalue-minimisations  :  1504
 total energy-change (2. order) :-0.1091686E+01  (-0.6666362E-01)
 number of electron      55.9999995 magnetization      11.3270184
 augmentation part       -1.2951896 magnetization       9.4786173

 Broyden mixing:
  rms(total) = 0.71137E+00    rms(broyden)= 0.71137E+00
  rms(prec ) = 0.72042E+00
  weight for this iteration     100.00

 eigenvalues of (default mixing * dielectric matrix)
  average eigenvalue GAMMA=   0.6823
  0.9170  0.9170  0.2415  0.6537

 Free energy of the ion-electron system (eV)
  ---------------------------------------------------
  alpha Z        PSCENC =        22.20798002
  Ewald energy   TEWEN  =      5985.89955237
  -Hartree energ DENC   =     -8122.43075061
  -exchange      EXHF   =         0.00000000
  -V(xc)+E(xc)   XCENC  =        14.24325414
  PAW double counting   =      1131.02908146    -1037.57820657
  entropy T*S    EENTRO =         0.00000000
  eigenvalues    EBANDS =      -474.15853341
  atomic energy  EATOM  =      2435.08307139
  Solvation  Ediel_sol  =         0.00000000
  ---------------------------------------------------
  free energy    TOTEN  =       -45.70455121 eV

  energy without entropy =      -45.70455121  energy(sigma->0) =      -45.70455121


--------------------------------------------------------------------------------------------------------




--------------------------------------- Iteration      1(  10)  ---------------------------------------


    POTLOK:  cpu time   50.9040: real time   51.1380
    SETDIJ:  cpu time    0.0440: real time    0.0441
     EDDAV:  cpu time   33.6720: real time   33.8753
 BZINTS: Fermi energy: -4.659812; 56.000000 electrons
         Band energy:-474.620981;  BLOECHL correction:  0.000000
       DOS:  cpu time    0.0000: real time    0.0032
    CHARGE:  cpu time    1.8600: real time    1.8634
    MIXING:  cpu time    0.0440: real time    0.0444
    --------------------------------------------
      LOOP:  cpu time   86.5240: real time   86.9684

 eigenvalue-minimisations  :  1536
 total energy-change (2. order) :-0.1071834E+01  (-0.1020689E+00)
 number of electron      55.9999995 magnetization      10.0791962
 augmentation part       -1.1004207 magnetization       8.7407134

 Broyden mixing:
  rms(total) = 0.31218E+00    rms(broyden)= 0.31218E+00
  rms(prec ) = 0.31537E+00
  weight for this iteration     100.00

 eigenvalues of (default mixing * dielectric matrix)
  average eigenvalue GAMMA=   0.8936
  1.7784  0.2419  0.8501  0.8501  0.7475

 Free energy of the ion-electron system (eV)
  ---------------------------------------------------
  alpha Z        PSCENC =        22.20798002
  Ewald energy   TEWEN  =      5985.89955237
  -Hartree energ DENC   =     -8125.05796548
  -exchange      EXHF   =         0.00000000
  -V(xc)+E(xc)   XCENC  =        16.71045275
  PAW double counting   =      1131.91278567    -1038.91128062
  entropy T*S    EENTRO =         0.00000000
  eigenvalues    EBANDS =      -474.62098121
  atomic energy  EATOM  =      2435.08307139
  Solvation  Ediel_sol  =         0.00000000
  ---------------------------------------------------
  free energy    TOTEN  =       -46.77638511 eV

  energy without entropy =      -46.77638511  energy(sigma->0) =      -46.77638511


--------------------------------------------------------------------------------------------------------




--------------------------------------- Iteration      1(  11)  ---------------------------------------


    POTLOK:  cpu time   51.0080: real time   51.2159
    SETDIJ:  cpu time    0.0440: real time    0.0438
     EDDAV:  cpu time   32.5880: real time   32.8548
 BZINTS: Fermi energy: -4.671115; 56.000000 electrons
         Band energy:-475.946339;  BLOECHL correction:  0.000000
       DOS:  cpu time    0.0040: real time    0.0033
    CHARGE:  cpu time    1.8680: real time    1.8855
    MIXING:  cpu time    0.0240: real time    0.0484
    --------------------------------------------
      LOOP:  cpu time   85.5360: real time   86.0517

 eigenvalue-minimisations  :  1488
 total energy-change (2. order) :-0.3984329E+00  (-0.3321467E-01)
 number of electron      55.9999995 magnetization       9.1029923
 augmentation part       -0.9458448 magnetization       8.0065577

 Broyden mixing:
  rms(total) = 0.34566E+00    rms(broyden)= 0.34566E+00
  rms(prec ) = 0.34711E+00
  weight for this iteration     100.00

 eigenvalues of (default mixing * dielectric matrix)
  average eigenvalue GAMMA=   1.0098
  2.5036  0.2419  0.9124  0.9124  0.7442  0.7442

 Free energy of the ion-electron system (eV)
  ---------------------------------------------------
  alpha Z        PSCENC =        22.20798002
  Ewald energy   TEWEN  =      5985.89955237
  -Hartree energ DENC   =     -8124.92440566
  -exchange      EXHF   =         0.00000000
  -V(xc)+E(xc)   XCENC  =        17.67581742
  PAW double counting   =      1129.91904700    -1037.08954167
  entropy T*S    EENTRO =         0.00000000
  eigenvalues    EBANDS =      -475.94633888
  atomic energy  EATOM  =      2435.08307139
  Solvation  Ediel_sol  =         0.00000000
  ---------------------------------------------------
  free energy    TOTEN  =       -47.17481802 eV

  energy without entropy =      -47.17481802  energy(sigma->0) =      -47.17481802


--------------------------------------------------------------------------------------------------------




--------------------------------------- Iteration      1(  12)  ---------------------------------------


    POTLOK:  cpu time   51.1160: real time   51.1936
    SETDIJ:  cpu time    0.0440: real time    0.0440
     EDDAV:  cpu time   28.1600: real time   28.4061
 BZINTS: Fermi energy: -4.642173; 56.000000 electrons
         Band energy:-475.649725;  BLOECHL correction:  0.000000
       DOS:  cpu time    0.0040: real time    0.0020
    CHARGE:  cpu time    1.9040: real time    1.9061
    MIXING:  cpu time    0.0440: real time    0.0437
    --------------------------------------------
      LOOP:  cpu time   81.2720: real time   81.5954

 eigenvalue-minimisations  :  1264
 total energy-change (2. order) :-0.2404243E+00  (-0.3970137E-02)
 number of electron      55.9999995 magnetization       7.3676911
 augmentation part       -0.9329832 magnetization       6.2566224

 Broyden mixing:
  rms(total) = 0.28613E+00    rms(broyden)= 0.28613E+00
  rms(prec ) = 0.28777E+00
  weight for this iteration     100.00

 eigenvalues of (default mixing * dielectric matrix)
  average eigenvalue GAMMA=   1.2410
  3.8269  0.2419  1.0668  1.0668  0.9178  0.9178  0.6493

 Free energy of the ion-electron system (eV)
  ---------------------------------------------------
  alpha Z        PSCENC =        22.20798002
  Ewald energy   TEWEN  =      5985.89955237
  -Hartree energ DENC   =     -8124.87537906
  -exchange      EXHF   =         0.00000000
  -V(xc)+E(xc)   XCENC  =        17.35484774
  PAW double counting   =      1128.60543171    -1036.04102198
  entropy T*S    EENTRO =         0.00000000
  eigenvalues    EBANDS =      -475.64972450
  atomic energy  EATOM  =      2435.08307139
  Solvation  Ediel_sol  =         0.00000000
  ---------------------------------------------------
  free energy    TOTEN  =       -47.41524231 eV

  energy without entropy =      -47.41524231  energy(sigma->0) =      -47.41524231


--------------------------------------------------------------------------------------------------------




--------------------------------------- Iteration      1(  13)  ---------------------------------------


    POTLOK:  cpu time   51.1600: real time   51.1752
    SETDIJ:  cpu time    0.0440: real time    0.0442
     EDDAV:  cpu time   28.2560: real time   28.4266
 BZINTS: Fermi energy: -4.657292; 56.000000 electrons
         Band energy:-474.768318;  BLOECHL correction:  0.000000
       DOS:  cpu time    0.0000: real time    0.0030
    CHARGE:  cpu time    1.8760: real time    1.8767
    MIXING:  cpu time    0.0480: real time    0.0453
    --------------------------------------------
      LOOP:  cpu time   81.3840: real time   81.5710

 eigenvalue-minimisations  :  1264
 total energy-change (2. order) :-0.2523325E+00  (-0.8536298E-02)
 number of electron      55.9999995 magnetization       6.3545416
 augmentation part       -0.9949355 magnetization       5.1354831

 Broyden mixing:
  rms(total) = 0.10661E+00    rms(broyden)= 0.10661E+00
  rms(prec ) = 0.10765E+00
  weight for this iteration     100.00

 eigenvalues of (default mixing * dielectric matrix)
  average eigenvalue GAMMA=   1.6015
  6.5581  1.7758  0.2419  0.9063  0.9063  0.8911  0.8911  0.6413

 Free energy of the ion-electron system (eV)
  ---------------------------------------------------
  alpha Z        PSCENC =        22.20798002
  Ewald energy   TEWEN  =      5985.89955237
  -Hartree energ DENC   =     -8124.98582218
  -exchange      EXHF   =         0.00000000
  -V(xc)+E(xc)   XCENC  =        16.32180843
  PAW double counting   =      1129.09260953    -1036.51845612
  entropy T*S    EENTRO =         0.00000000
  eigenvalues    EBANDS =      -474.76831825
  atomic energy  EATOM  =      2435.08307139
  Solvation  Ediel_sol  =         0.00000000
  ---------------------------------------------------
  free energy    TOTEN  =       -47.66757482 eV

  energy without entropy =      -47.66757482  energy(sigma->0) =      -47.66757482


--------------------------------------------------------------------------------------------------------




--------------------------------------- Iteration      1(  14)  ---------------------------------------


    POTLOK:  cpu time   51.0440: real time   51.1197
    SETDIJ:  cpu time    0.0440: real time    0.0449
     EDDAV:  cpu time   30.6120: real time   30.8113
 BZINTS: Fermi energy: -4.637426; 56.000000 electrons
         Band energy:-474.342147;  BLOECHL correction:  0.000000
       DOS:  cpu time    0.0000: real time    0.0032
    CHARGE:  cpu time    1.9080: real time    1.9216
    MIXING:  cpu time    0.0440: real time    0.0452
    --------------------------------------------
      LOOP:  cpu time   83.6520: real time   83.9459

 eigenvalue-minimisations  :  1392
 total energy-change (2. order) :-0.6966773E-01  (-0.5183190E-02)
 number of electron      55.9999995 magnetization       6.0681003
 augmentation part       -1.0217142 magnetization       4.7555530

 Broyden mixing:
  rms(total) = 0.51751E-01    rms(broyden)= 0.51750E-01
  rms(prec ) = 0.52726E-01
  weight for this iteration     100.00

 eigenvalues of (default mixing * dielectric matrix)
  average eigenvalue GAMMA=   1.7642
  8.2234  1.9954  0.2419  0.8978  0.8978  1.1242  1.1242  0.7373  0.6355

 Free energy of the ion-electron system (eV)
  ---------------------------------------------------
  alpha Z        PSCENC =        22.20798002
  Ewald energy   TEWEN  =      5985.89955237
  -Hartree energ DENC   =     -8124.83942941
  -exchange      EXHF   =         0.00000000
  -V(xc)+E(xc)   XCENC  =        15.66059587
  PAW double counting   =      1128.13412728    -1035.54099309
  entropy T*S    EENTRO =         0.00000000
  eigenvalues    EBANDS =      -474.34214699
  atomic energy  EATOM  =      2435.08307139
  Solvation  Ediel_sol  =         0.00000000
  ---------------------------------------------------
  free energy    TOTEN  =       -47.73724255 eV

  energy without entropy =      -47.73724255  energy(sigma->0) =      -47.73724255


--------------------------------------------------------------------------------------------------------




--------------------------------------- Iteration      1(  15)  ---------------------------------------


    POTLOK:  cpu time   50.8960: real time   51.1375
    SETDIJ:  cpu time    0.0480: real time    0.0477
     EDDAV:  cpu time   30.2520: real time   30.4468
 BZINTS: Fermi energy: -4.654328; 56.000000 electrons
         Band energy:-474.545489;  BLOECHL correction:  0.000000
       DOS:  cpu time    0.0040: real time    0.0034
    CHARGE:  cpu time    1.9000: real time    1.9049
    MIXING:  cpu time    0.0480: real time    0.0490
    --------------------------------------------
      LOOP:  cpu time   83.1480: real time   83.5893

 eigenvalue-minimisations  :  1360
 total energy-change (2. order) :-0.3168305E-02  (-0.1311278E-02)
 number of electron      55.9999995 magnetization       6.0138174
 augmentation part       -1.0141025 magnetization       4.7144013

 Broyden mixing:
  rms(total) = 0.26576E-01    rms(broyden)= 0.26576E-01
  rms(prec ) = 0.26895E-01
  weight for this iteration     100.00

 eigenvalues of (default mixing * dielectric matrix)
  average eigenvalue GAMMA=   1.7980
  8.9729  2.2532  0.2419  1.4159  0.8948  0.8948  1.1292  0.8070  0.7398  0.6304

 Free energy of the ion-electron system (eV)
  ---------------------------------------------------
  alpha Z        PSCENC =        22.20798002
  Ewald energy   TEWEN  =      5985.89955237
  -Hartree energ DENC   =     -8124.79953213
  -exchange      EXHF   =         0.00000000
  -V(xc)+E(xc)   XCENC  =        15.66341270
  PAW double counting   =      1128.08128294    -1035.33068865
  entropy T*S    EENTRO =         0.00000000
  eigenvalues    EBANDS =      -474.54548950
  atomic energy  EATOM  =      2435.08307139
  Solvation  Ediel_sol  =         0.00000000
  ---------------------------------------------------
  free energy    TOTEN  =       -47.74041086 eV

  energy without entropy =      -47.74041086  energy(sigma->0) =      -47.74041086


--------------------------------------------------------------------------------------------------------




--------------------------------------- Iteration      1(  16)  ---------------------------------------


    POTLOK:  cpu time   51.0040: real time   51.0602
    SETDIJ:  cpu time    0.0480: real time    0.0468
     EDDAV:  cpu time   25.6160: real time   25.7694
 BZINTS: Fermi energy: -4.614415; 56.000000 electrons
         Band energy:-474.667952;  BLOECHL correction:  0.000000
       DOS:  cpu time    0.0000: real time    0.0036
    CHARGE:  cpu time    1.9320: real time    1.9327
    MIXING:  cpu time    0.0520: real time    0.0513
    --------------------------------------------
      LOOP:  cpu time   78.6520: real time   78.8641

 eigenvalue-minimisations  :  1136
 total energy-change (2. order) : 0.6753495E-03  (-0.2778568E-03)
 number of electron      55.9999995 magnetization       6.0043053
 augmentation part       -1.0059268 magnetization       4.7147719

 Broyden mixing:
  rms(total) = 0.86926E-02    rms(broyden)= 0.86925E-02
  rms(prec ) = 0.89753E-02
  weight for this iteration     100.00

 eigenvalues of (default mixing * dielectric matrix)
  average eigenvalue GAMMA=   1.7892
  9.2500  2.5296  1.3955  1.3955  0.2419  0.8962  0.8962  0.9052  0.8599  0.6799
  0.6311

 Free energy of the ion-electron system (eV)
  ---------------------------------------------------
  alpha Z        PSCENC =        22.20798002
  Ewald energy   TEWEN  =      5985.89955237
  -Hartree energ DENC   =     -8124.75370631
  -exchange      EXHF   =         0.00000000
  -V(xc)+E(xc)   XCENC  =        15.72709614
  PAW double counting   =      1128.03915419    -1035.27493096
  entropy T*S    EENTRO =         0.00000000
  eigenvalues    EBANDS =      -474.66795234
  atomic energy  EATOM  =      2435.08307139
  Solvation  Ediel_sol  =         0.00000000
  ---------------------------------------------------
  free energy    TOTEN  =       -47.73973551 eV

  energy without entropy =      -47.73973551  energy(sigma->0) =      -47.73973551


--------------------------------------------------------------------------------------------------------




--------------------------------------- Iteration      1(  17)  ---------------------------------------


    POTLOK:  cpu time   50.6760: real time   51.0156
    SETDIJ:  cpu time    0.0440: real time    0.0436
     EDDAV:  cpu time   23.2800: real time   23.4431
 BZINTS: Fermi energy: -4.608912; 56.000000 electrons
         Band energy:-474.749938;  BLOECHL correction:  0.000000
       DOS:  cpu time    0.0040: real time    0.0013
    --------------------------------------------
      LOOP:  cpu time   74.0040: real time   74.5035

 eigenvalue-minimisations  :  1024
 total energy-change (2. order) :-0.9872874E-04  (-0.3586575E-04)
 number of electron      55.9999995 magnetization       6.0043053
 augmentation part       -1.0059268 magnetization       4.7147719

 Free energy of the ion-electron system (eV)
  ---------------------------------------------------
  alpha Z        PSCENC =        22.20798002
  Ewald energy   TEWEN  =      5985.89955237
  -Hartree energ DENC   =     -8124.68760671
  -exchange      EXHF   =         0.00000000
  -V(xc)+E(xc)   XCENC  =        15.74585051
  PAW double counting   =      1128.17140510    -1035.41014855
  entropy T*S    EENTRO =         0.00000000
  eigenvalues    EBANDS =      -474.74993836
  atomic energy  EATOM  =      2435.08307139
  Solvation  Ediel_sol  =         0.00000000
  ---------------------------------------------------
  free energy    TOTEN  =       -47.73983424 eV

  energy without entropy =      -47.73983424  energy(sigma->0) =      -47.73983424


--------------------------------------------------------------------------------------------------------




 average (electrostatic) potential at core
  the test charge radii are     1.1394  1.1631  0.9698
  (the norm of the test charge is              1.0000)
       1 -52.7234       2 -52.7234       3 -41.3666       4 -41.3666       5 -95.1237
       6 -95.1237       7 -95.1236       8 -95.1237       9 -95.1237      10 -95.1236



 E-fermi :  -4.6089     XC(G=0):  -3.1086     alpha+bet : -2.0866


 spin component 1

 k-point     1 :       0.0000    0.0000    0.0000
  band No.  band energies     occupation 
      1     -16.3350      1.00000
      2     -15.8212      1.00000
      3     -15.3523      1.00000
      4     -15.3523      1.00000
      5     -15.3203      1.00000
      6     -15.3203      1.00000
      7     -12.7923      1.00000
      8     -10.3916      1.00000
      9      -7.5983      1.00000
     10      -7.5983      1.00000
     11      -7.4840      1.00000
     12      -7.3274      1.00000
     13      -7.1470      1.00000
     14      -7.1470      1.00000
     15      -6.3323      1.00000
     16      -6.1940      1.00000
     17      -6.1939      1.00000
     18      -5.9849      1.00000
     19      -5.9849      1.00000
     20      -5.7418      1.00000
     21      -5.4076      1.00000
     22      -5.4076      1.00000
     23      -5.1850      1.00000
     24      -5.1004      1.00000
     25      -5.1003      1.00000
     26      -5.0970      1.00000
     27      -5.0970      1.00000
     28      -5.0906      1.00000
     29      -4.7162      1.00000
     30      -4.6815      1.00000
     31      -4.6815      1.00000
     32      -3.6969      0.00000
     33      -3.4398      0.00000
     34      -3.4398      0.00000
     35      -3.2127      0.00000
     36      -3.2127      0.00000
     37      -3.1617      0.00000
     38      -1.1096      0.00000
     39      -1.1096      0.00000
     40       0.3458      0.00000
     41       0.6555      0.00000
     42       0.6555      0.00000
     43       0.6877      0.00000
     44       0.8394      0.00000
     45       1.5286      0.00000
     46       1.5787      0.00000
     47       2.0920      0.00000
     48       2.3878      0.00000

 k-point     2 :       0.2000    0.0000    0.0000
  band No.  band energies     occupation 
      1     -16.2560      1.00000
      2     -15.7713      1.00000
      3     -15.4402      1.00000
      4     -15.3909      1.00000
      5     -15.3602      1.00000
      6     -15.3415      1.00000
      7     -12.7623      1.00000
      8     -10.4279      1.00000
      9      -7.5656      1.00000
     10      -7.5535      1.00000
     11      -7.4411      1.00000
     12      -7.2503      1.00000
     13      -6.9156      1.00000
     14      -6.7384      1.00000
     15      -6.3523      1.00000
     16      -6.2537      1.00000
     17      -6.2255      1.00000
     18      -6.1582      1.00000
     19      -5.7888      1.00000
     20      -5.7221      1.00000
     21      -5.6487      1.00000
     22      -5.6326      1.00000
     23      -5.2521      1.00000
     24      -5.2259      1.00000
     25      -5.1364      1.00000
     26      -5.1189      1.00000
     27      -5.0545      1.00000
     28      -5.0257      1.00000
     29      -4.9627      1.00000
     30      -4.7405      1.00000
     31      -4.6609      1.00000
     32      -3.9057      0.00000
     33      -3.4321      0.00000
     34      -3.4280      0.00000
     35      -3.2828      0.00000
     36      -3.0771      0.00000
     37      -2.8403      0.00000
     38      -1.2146      0.00000
     39      -1.1346      0.00000
     40       0.3462      0.00000
     41       0.3580      0.00000
     42       0.6340      0.00000
     43       0.7555      0.00000
     44       0.7607      0.00000
     45       1.6109      0.00000
     46       1.6538      0.00000
     47       2.0925      0.00000
     48       2.3429      0.00000

 k-point     3 :       0.4000    0.0000    0.0000
  band No.  band energies     occupation 
      1     -16.0534      1.00000
      2     -15.6756      1.00000
      3     -15.6504      1.00000
      4     -15.4578      1.00000
      5     -15.4124      1.00000
      6     -15.4059      1.00000
      7     -12.7110      1.00000
      8     -10.4758      1.00000
      9      -7.5445      1.00000
     10      -7.4373      1.00000
     11      -7.1391      1.00000
     12      -6.8746      1.00000
     13      -6.5073      1.00000
     14      -6.4975      1.00000
     15      -6.3997      1.00000
     16      -6.3627      1.00000
     17      -6.3059      1.00000
     18      -6.2981      1.00000
     19      -6.0298      1.00000
     20      -5.9287      1.00000
     21      -5.8642      1.00000
     22      -5.4765      1.00000
     23      -5.4244      1.00000
     24      -5.3689      1.00000
     25      -5.2150      1.00000
     26      -5.1512      1.00000
     27      -5.1498      1.00000
     28      -4.9296      1.00000
     29      -4.8677      1.00000
     30      -4.8585      1.00000
     31      -4.7416      1.00000
     32      -3.8554      0.00000
     33      -3.4782      0.00000
     34      -3.4387      0.00000
     35      -3.4334      0.00000
     36      -3.2474      0.00000
     37      -2.5998      0.00000
     38      -1.2681      0.00000
     39      -1.2418      0.00000
     40       0.0084      0.00000
     41       0.0409      0.00000
     42       0.5683      0.00000
     43       0.8144      0.00000
     44       0.9395      0.00000
     45       1.8285      0.00000
     46       1.9151      0.00000
     47       2.2538      0.00000
     48       2.4038      0.00000

 k-point     4 :       0.4000    0.2000    0.0000
  band No.  band energies     occupation 
      1     -16.1126      1.00000
      2     -15.6851      1.00000
      3     -15.5521      1.00000
      4     -15.5039      1.00000
      5     -15.4126      1.00000
      6     -15.3724      1.00000
      7     -12.7187      1.00000
      8     -10.4658      1.00000
      9      -7.5929      1.00000
     10      -7.3362      1.00000
     11      -7.3162      1.00000
     12      -7.0114      1.00000
     13      -6.5775      1.00000
     14      -6.4403      1.00000
     15      -6.3980      1.00000
     16      -6.3565      1.00000
     17      -6.2905      1.00000
     18      -6.1918      1.00000
     19      -6.0167      1.00000
     20      -5.9489      1.00000
     21      -5.8996      1.00000
     22      -5.5082      1.00000
     23      -5.3506      1.00000
     24      -5.2955      1.00000
     25      -5.1986      1.00000
     26      -5.1152      1.00000
     27      -5.0567      1.00000
     28      -5.0130      1.00000
     29      -4.8880      1.00000
     30      -4.8274      1.00000
     31      -4.7268      1.00000
     32      -3.9498      0.00000
     33      -3.4943      0.00000
     34      -3.4236      0.00000
     35      -3.2606      0.00000
     36      -3.2437      0.00000
     37      -2.6382      0.00000
     38      -1.3410      0.00000
     39      -1.2215      0.00000
     40      -0.0783      0.00000
     41       0.1621      0.00000
     42       0.5917      0.00000
     43       0.8675      0.00000
     44       0.8754      0.00000
     45       1.7828      0.00000
     46       1.8614      0.00000
     47       2.2359      0.00000
     48       2.4657      0.00000

 k-point     5 :      -0.4000    0.2000    0.0000
  band No.  band energies     occupation 
      1     -15.9452      1.00000
      2     -15.7181      1.00000
      3     -15.5959      1.00000
      4     -15.5515      1.00000
      5     -15.4708      1.00000
      6     -15.4072      1.00000
      7     -12.6885      1.00000
      8     -10.4837      1.00000
      9      -7.4847      1.00000
     10      -7.2332      1.00000
     11      -7.1624      1.00000
     12      -6.9282      1.00000
     13      -6.6786      1.00000
     14      -6.5039      1.00000
     15      -6.4130      1.00000
     16      -6.2682      1.00000
     17      -6.2090      1.00000
     18      -6.2050      1.00000
     19      -6.1038      1.00000
     20      -6.0718      1.00000
     21      -5.8505      1.00000
     22      -5.5827      1.00000
     23      -5.3335      1.00000
     24      -5.2835      1.00000
     25      -5.2260      1.00000
     26      -5.0663      1.00000
     27      -5.0650      1.00000
     28      -4.9559      1.00000
     29      -4.9005      1.00000
     30      -4.8454      1.00000
     31      -4.8375      1.00000
     32      -3.8134      0.00000
     33      -3.5889      0.00000
     34      -3.5240      0.00000
     35      -3.4255      0.00000
     36      -3.2308      0.00000
     37      -2.5796      0.00000
     38      -1.3847      0.00000
     39      -1.3640      0.00000
     40      -0.1932      0.00000
     41      -0.1792      0.00000
     42       0.5286      0.00000
     43       0.9955      0.00000
     44       1.0278      0.00000
     45       2.0272      0.00000
     46       2.1245      0.00000
     47       2.3513      0.00000
     48       2.4151      0.00000

 spin component 2

 k-point     1 :       0.0000    0.0000    0.0000
  band No.  band energies     occupation 
      1     -16.4649      1.00000
      2     -16.0016      1.00000
      3     -15.5551      1.00000
      4     -15.5551      1.00000
      5     -15.5217      1.00000
      6     -15.5217      1.00000
      7     -12.7687      1.00000
      8     -10.3549      1.00000
      9      -7.5213      1.00000
     10      -7.5213      1.00000
     11      -7.3382      1.00000
     12      -7.1409      1.00000
     13      -7.0911      1.00000
     14      -7.0910      1.00000
     15      -6.4299      1.00000
     16      -5.7265      1.00000
     17      -5.7264      1.00000
     18      -5.5563      1.00000
     19      -5.5563      1.00000
     20      -5.3676      1.00000
     21      -5.3141      1.00000
     22      -5.3141      1.00000
     23      -5.2878      1.00000
     24      -4.8506      1.00000
     25      -4.8506      1.00000
     26      -3.7518      0.00000
     27      -3.1448      0.00000
     28      -2.1020      0.00000
     29      -2.1020      0.00000
     30      -2.0065      0.00000
     31      -2.0033      0.00000
     32      -2.0033      0.00000
     33      -1.8769      0.00000
     34      -1.7299      0.00000
     35      -1.7299      0.00000
     36      -1.7009      0.00000
     37      -1.7009      0.00000
     38      -1.1246      0.00000
     39      -1.1246      0.00000
     40       0.6813      0.00000
     41       0.7037      0.00000
     42       0.7037      0.00000
     43       0.8726      0.00000
     44       1.5207      0.00000
     45       1.5745      0.00000
     46       1.5802      0.00000
     47       2.2360      0.00000
     48       2.4494      0.00000

 k-point     2 :       0.2000    0.0000    0.0000
  band No.  band energies     occupation 
      1     -16.3896      1.00000
      2     -15.9528      1.00000
      3     -15.6347      1.00000
      4     -15.5922      1.00000
      5     -15.5578      1.00000
      6     -15.5425      1.00000
      7     -12.7459      1.00000
      8     -10.3910      1.00000
      9      -7.5013      1.00000
     10      -7.4366      1.00000
     11      -7.3132      1.00000
     12      -7.1665      1.00000
     13      -6.8383      1.00000
     14      -6.6173      1.00000
     15      -6.2694      1.00000
     16      -5.9046      1.00000
     17      -5.7914      1.00000
     18      -5.7179      1.00000
     19      -5.7087      1.00000
     20      -5.4849      1.00000
     21      -5.4455      1.00000
     22      -5.3710      1.00000
     23      -5.2854      1.00000
     24      -5.0358      1.00000
     25      -4.9721      1.00000
     26      -3.6763      0.00000
     27      -3.0535      0.00000
     28      -2.1190      0.00000
     29      -2.0921      0.00000
     30      -2.0395      0.00000
     31      -2.0202      0.00000
     32      -1.8904      0.00000
     33      -1.8586      0.00000
     34      -1.8017      0.00000
     35      -1.7792      0.00000
     36      -1.7194      0.00000
     37      -1.6575      0.00000
     38      -1.1915      0.00000
     39      -1.1452      0.00000
     40       0.4313      0.00000
     41       0.5605      0.00000
     42       0.8317      0.00000
     43       0.9252      0.00000
     44       1.5026      0.00000
     45       1.6171      0.00000
     46       1.7374      0.00000
     47       2.2913      0.00000
     48       2.4931      0.00000

 k-point     3 :       0.4000    0.0000    0.0000
  band No.  band energies     occupation 
      1     -16.1963      1.00000
      2     -15.8525      1.00000
      3     -15.8335      1.00000
      4     -15.6566      1.00000
      5     -15.6131      1.00000
      6     -15.5991      1.00000
      7     -12.7059      1.00000
      8     -10.4383      1.00000
      9      -7.4150      1.00000
     10      -7.3996      1.00000
     11      -6.9875      1.00000
     12      -6.8407      1.00000
     13      -6.4364      1.00000
     14      -6.3460      1.00000
     15      -6.2266      1.00000
     16      -6.1459      1.00000
     17      -5.9792      1.00000
     18      -5.9381      1.00000
     19      -5.8468      1.00000
     20      -5.7372      1.00000
     21      -5.5137      1.00000
     22      -5.4212      1.00000
     23      -5.2582      1.00000
     24      -5.2080      1.00000
     25      -5.0656      1.00000
     26      -3.7187      0.00000
     27      -3.2789      0.00000
     28      -2.1244      0.00000
     29      -2.0963      0.00000
     30      -2.0514      0.00000
     31      -2.0309      0.00000
     32      -1.9886      0.00000
     33      -1.8368      0.00000
     34      -1.8099      0.00000
     35      -1.7832      0.00000
     36      -1.7536      0.00000
     37      -1.5176      0.00000
     38      -1.2519      0.00000
     39      -1.1431      0.00000
     40       0.1351      0.00000
     41       0.2515      0.00000
     42       0.6843      0.00000
     43       1.4205      0.00000
     44       1.5128      0.00000
     45       1.9449      0.00000
     46       2.0294      0.00000
[...]
     34      -0.2978      0.00000
     35      -0.2739      0.00000
     36      -0.1134      0.00000
     37       0.3945      0.00000
     38       1.1178      0.00000
     39       1.2936      0.00000
     40       1.8881      0.00000
     41       2.0614      0.00000
     42       2.3647      0.00000
     43       2.5047      0.00000
     44       2.6288      0.00000
     45       3.4144      0.00000
     46       3.4629      0.00000
     47       3.7730      0.00000
     48       3.8668      0.00000

 k-point     5 :      -0.4000    0.2000    0.0000
  band No.  band energies     occupation 
      1     -16.6255      1.00000
      2     -16.1176      1.00000
      3     -15.9189      1.00000
      4     -15.7564      1.00000
      5     -15.5669      1.00000
      6     -15.4232      1.00000
      7     -11.5450      1.00000
      8     -10.0680      1.00000
      9      -7.9280      1.00000
     10      -7.5087      1.00000
     11      -7.3814      1.00000
     12      -6.9530      1.00000
     13      -6.8078      1.00000
     14      -6.4068      1.00000
     15      -6.1073      1.00000
     16      -5.8556      1.00000
     17      -5.7792      1.00000
     18      -5.6688      1.00000
     19      -5.6203      1.00000
     20      -5.3785      1.00000
     21      -5.2469      1.00000
     22      -4.6828      1.00000
     23      -4.5467      1.00000
     24      -4.4676      1.00000
     25      -3.8840      1.00000
     26      -2.5540      0.00000
     27      -1.7181      0.00000
     28      -1.6917      0.00000
     29      -1.4589      0.00000
     30      -1.0923      0.00000
     31      -0.9272      0.00000
     32      -0.8937      0.00000
     33      -0.5040      0.00000
     34      -0.4848      0.00000
     35      -0.1416      0.00000
     36      -0.1131      0.00000
     37       0.5861      0.00000
     38       0.8881      0.00000
     39       1.1173      0.00000
     40       1.9591      0.00000
     41       2.0487      0.00000
     42       2.0858      0.00000
     43       2.8293      0.00000
     44       2.9736      0.00000
     45       3.0659      0.00000
     46       3.1785      0.00000
     47       3.6105      0.00000
     48       3.9637      0.00000


--------------------------------------------------------------------------------------------------------


 soft charge-density along one line, spin component           1
         0         1         2         3         4         5         6         7         8         9
 total charge-density along one line

 soft charge-density along one line, spin component           2
         0         1         2         3         4         5         6         7         8         9
 total charge-density along one line

 pseudopotential strength for first ion, spin component:           1
 -9.069   0.103  -0.000  -0.000   0.000   0.762  -0.028   0.000
  0.103  -8.989   0.000   0.000  -0.000  -0.028   0.741  -0.000
 -0.000   0.000  -9.153   0.000   0.000   0.000  -0.000   0.785
 -0.000   0.000   0.000  -8.989  -0.103   0.000  -0.000  -0.000
  0.000  -0.000   0.000  -0.103  -9.069  -0.000   0.000  -0.000
  0.762  -0.028   0.000   0.000  -0.000   0.341   0.007  -0.000
 -0.028   0.741  -0.000  -0.000   0.000   0.007   0.347   0.000
  0.000  -0.000   0.785  -0.000  -0.000  -0.000   0.000   0.336
  0.000  -0.000  -0.000   0.741   0.028  -0.000   0.000   0.000
 -0.000   0.000  -0.000   0.028   0.762   0.000  -0.000   0.000
 -0.000  -0.000   0.001  -0.000   0.000  -0.000   0.000  -0.000
  0.000   0.000  -0.000   0.000  -0.000  -0.000  -0.000   0.000
 -0.000  -0.000   0.000  -0.000   0.001   0.000   0.000  -0.000
 -0.000  -0.000  -0.000  -0.000  -0.000   0.000   0.000   0.000
  0.001  -0.000   0.000  -0.000   0.000  -0.000   0.000  -0.000
  0.000   0.000  -0.000   0.000  -0.001  -0.000  -0.000   0.000
  0.000   0.000   0.000   0.000   0.000  -0.000  -0.000  -0.000
 -0.001   0.000  -0.000   0.000  -0.000   0.000  -0.000   0.000
 pseudopotential strength for first ion, spin component:           2
 -7.455  -0.193  -0.000   0.000   0.000   0.306   0.050   0.000
 -0.193  -7.642   0.000   0.000   0.000   0.050   0.355  -0.000
 -0.000   0.000  -7.328   0.000   0.000   0.000  -0.000   0.273
  0.000   0.000   0.000  -7.642   0.193  -0.000  -0.000  -0.000
  0.000   0.000   0.000   0.193  -7.455  -0.000  -0.000  -0.000
  0.306   0.050   0.000  -0.000  -0.000   0.466  -0.013  -0.000
  0.050   0.355  -0.000  -0.000  -0.000  -0.013   0.454   0.000
  0.000  -0.000   0.273  -0.000  -0.000  -0.000   0.000   0.475
 -0.000  -0.000  -0.000   0.355  -0.050   0.000   0.000   0.000
 -0.000  -0.000  -0.000  -0.050   0.306   0.000   0.000   0.000
 -0.000  -0.000   0.006  -0.000   0.000  -0.000   0.000  -0.001
  0.000   0.000  -0.001   0.000  -0.000  -0.000  -0.000   0.000
  0.000  -0.000   0.000  -0.000   0.000  -0.000   0.000  -0.000
 -0.000  -0.000  -0.000  -0.000   0.000   0.000   0.000   0.000
  0.000  -0.000   0.000  -0.000  -0.000   0.000   0.000  -0.000
  0.000   0.000  -0.000   0.000  -0.001  -0.000  -0.000   0.000
  0.000   0.000   0.000   0.000  -0.000  -0.000  -0.000  -0.000
 -0.001   0.000  -0.000   0.000  -0.000  -0.000  -0.000   0.000
 total augmentation occupancy for first ion, spin component:           1
  0.983  -0.065   0.000   0.000  -0.000   0.042   0.264  -0.000  -0.000  -0.000  -0.000  -0.000  -0.000   0.000   0.008   0.000
 -0.065   0.903  -0.000  -0.000   0.000   0.263   0.300   0.000  -0.000  -0.000   0.000  -0.000  -0.001  -0.000   0.002  -0.000
  0.000  -0.000   1.050  -0.000  -0.000  -0.000   0.000  -0.141   0.000   0.000  -0.011  -0.019  -0.000   0.000   0.000   0.000
  0.000  -0.000  -0.000   0.903   0.065  -0.000   0.000   0.000   0.300  -0.263  -0.000  -0.000  -0.002   0.000  -0.001  -0.000
 -0.000   0.000  -0.000   0.065   0.983   0.000  -0.000   0.000  -0.264   0.042   0.000   0.000   0.008  -0.000   0.000  -0.001
  0.042   0.263  -0.000  -0.000   0.000   0.219   0.090   0.000  -0.000  -0.000   0.000  -0.000  -0.000   0.000   0.029   0.000
  0.264   0.300   0.000   0.000  -0.000   0.090   0.317   0.000  -0.000  -0.000  -0.000   0.000  -0.000  -0.000  -0.006   0.000
 -0.000   0.000  -0.141   0.000   0.000   0.000   0.000   0.216   0.000  -0.000   0.057  -0.010  -0.000   0.000   0.000   0.000
 -0.000  -0.000   0.000   0.300  -0.264  -0.000  -0.000   0.000   0.317  -0.090  -0.000   0.000   0.006  -0.000  -0.000  -0.000
 -0.000  -0.000   0.000  -0.263   0.042  -0.000  -0.000  -0.000  -0.090   0.219  -0.000   0.000   0.029  -0.000   0.000  -0.002
 -0.000  -0.000  -0.011  -0.000   0.000   0.000   0.000   0.057   0.000  -0.000   1.080  -0.190   0.000  -0.001   0.000   0.000
 -0.000  -0.000  -0.019   0.000   0.000  -0.000   0.000  -0.010  -0.000   0.000  -0.190   0.078   0.000   0.000   0.000   0.000
 -0.000  -0.001  -0.000  -0.002   0.008  -0.000  -0.000  -0.000   0.006   0.029   0.000   0.000   0.239  -0.000  -0.000  -0.004
  0.000   0.000   0.000  -0.000  -0.000   0.000   0.000   0.000  -0.000  -0.000  -0.001   0.000  -0.000   0.258  -0.000   0.000
  0.008   0.002   0.000  -0.001   0.000   0.029  -0.006   0.000  -0.000   0.000   0.000   0.000  -0.000   0.000   0.239   0.000
  0.000  -0.000   0.000  -0.000  -0.001   0.000   0.000   0.000  -0.000  -0.002  -0.000   0.000  -0.004   0.000   0.000   0.000
 -0.000  -0.000  -0.000   0.000   0.000  -0.000  -0.000  -0.000   0.000   0.000   0.000  -0.000   0.000  -0.005  -0.000  -0.000
 -0.001   0.000  -0.000  -0.000  -0.000  -0.002   0.000  -0.000   0.000  -0.000   0.000   0.000  -0.000  -0.000  -0.004  -0.000
 total augmentation occupancy for first ion, spin component:           2
  0.692  -0.317   0.000   0.000  -0.000  -0.186   0.081  -0.000  -0.000  -0.000  -0.000  -0.000   0.000  -0.000  -0.005   0.000
 -0.317   0.398  -0.000  -0.000   0.000   0.077  -0.101   0.000  -0.000  -0.000   0.000  -0.000  -0.000   0.000   0.006  -0.000
  0.000  -0.000   0.895  -0.000  -0.000  -0.000   0.000  -0.280   0.000   0.000  -0.032  -0.008   0.000  -0.000  -0.000  -0.000
  0.000  -0.000  -0.000   0.398   0.317  -0.000   0.000   0.000  -0.101  -0.077   0.000   0.000  -0.006   0.000  -0.000   0.000
 -0.000   0.000  -0.000   0.317   0.692   0.000  -0.000   0.000  -0.081  -0.186   0.000   0.000  -0.005   0.000  -0.000   0.001
 -0.186   0.077  -0.000  -0.000   0.000   0.015  -0.066   0.000   0.000  -0.000   0.000   0.000   0.000   0.000  -0.000  -0.000
  0.081  -0.101   0.000   0.000  -0.000  -0.066  -0.046  -0.000   0.000   0.000   0.000   0.000   0.000   0.000  -0.002  -0.000
 -0.000   0.000  -0.280   0.000   0.000   0.000  -0.000   0.085  -0.000  -0.000   0.016   0.006   0.000   0.000  -0.000  -0.000
 -0.000  -0.000   0.000  -0.101  -0.081   0.000   0.000  -0.000  -0.046   0.066   0.000   0.000   0.002  -0.000   0.000  -0.000
 -0.000  -0.000   0.000  -0.077  -0.186  -0.000   0.000  -0.000   0.066   0.015  -0.000  -0.000  -0.000  -0.000  -0.000   0.000
 -0.000   0.000  -0.032   0.000   0.000   0.000   0.000   0.016   0.000  -0.000   0.151   0.066   0.000  -0.000  -0.000   0.000
 -0.000   0.000  -0.008   0.000   0.000   0.000  -0.000   0.006   0.000  -0.000   0.066  -0.022   0.000  -0.000  -0.000   0.000
  0.000  -0.000   0.000  -0.006  -0.005   0.000   0.000   0.000   0.002  -0.000  -0.000   0.000   0.026  -0.000  -0.000   0.003
 -0.000   0.000  -0.000   0.000   0.000   0.000   0.000   0.000   0.000  -0.000  -0.000  -0.000  -0.000   0.021   0.000  -0.000
 -0.005   0.006  -0.000  -0.000  -0.000  -0.000  -0.002  -0.000   0.000  -0.000  -0.000   0.000  -0.000   0.000   0.026  -0.000
  0.000  -0.000  -0.000   0.000   0.001  -0.000  -0.000  -0.000  -0.000   0.000  -0.000   0.000   0.003  -0.000  -0.000  -0.000
 -0.000  -0.000  -0.000   0.000   0.000   0.000   0.000   0.000  -0.000  -0.000  -0.000   0.000  -0.000   0.003  -0.000   0.000
  0.001  -0.000   0.000  -0.000  -0.000   0.000   0.000   0.000  -0.000   0.000  -0.000   0.000   0.000   0.000   0.003   0.000


------------------------ aborting loop because EDIFF is reached ----------------------------------------





 total charge     

# of ion       s       p       d       tot
------------------------------------------
    1        0.354   0.499   4.219   5.072
    2        0.354   0.499   4.219   5.072
    3        1.129   1.180   0.132   2.441
    4        1.129   1.180   0.132   2.441
    5        1.364   2.340   0.000   3.704
    6        1.360   2.346   0.000   3.707
    7        1.364   2.339   0.000   3.703
    8        1.364   2.340   0.000   3.704
    9        1.360   2.346   0.000   3.707
   10        1.364   2.339   0.000   3.703
--------------------------------------------------
tot         11.144  17.410   8.702  37.256



 magnetization (x)

# of ion       s       p       d       tot
------------------------------------------
    1        0.033   0.040   2.874   2.947
    2        0.033   0.040   2.874   2.947
    3        0.003   0.053  -0.001   0.054
    4        0.003   0.053  -0.001   0.054
    5       -0.000  -0.060   0.000  -0.061
    6       -0.002  -0.051   0.000  -0.052
    7       -0.001  -0.057   0.000  -0.057
    8       -0.000  -0.060   0.000  -0.061
    9       -0.002  -0.051   0.000  -0.052
   10       -0.001  -0.057   0.000  -0.057
--------------------------------------------------
tot          0.067  -0.150   5.745   5.662

    CHARGE:  cpu time    1.9320: real time    1.9393
    FORLOC:  cpu time    0.0520: real time    0.0554
    FORNL :  cpu time    6.5880: real time    6.6859
    STRESS:  cpu time   19.8480: real time   20.0088
    FORCOR:  cpu time   51.7640: real time   51.8398
    FORHAR:  cpu time    0.3440: real time    0.3420
    MIXING:  cpu time    0.0400: real time    0.0404
    OFIELD:  cpu time    0.0000: real time    0.0000

  FORCE on cell =-STRESS in cart. coord.  units (eV):
  Direction    XX          YY          ZZ          XY          YZ          ZX
  --------------------------------------------------------------------------------------
  Alpha Z    29.98476    29.98476    29.98476
  Ewald    9808.00299  9808.00075-11443.35708    -0.00124    -0.00041    -0.00074
  Hartree 10149.56379 10149.56414 -9959.31125    -0.00010     0.00003     0.00005
  E(xc)    -211.91487  -211.91486  -211.40324     0.00001     0.00000     0.00001
  Local  -20823.56202-20823.56142 20502.36828     0.00092     0.00020     0.00038
  n-local   458.00153   459.88219   462.15036     0.90000     0.56207     0.53098
  augment   -41.61417   -41.61412   -44.94695    -0.00001     0.00003     0.00002
  Kinetic   632.51048   627.70213   664.28998    -3.40341     1.18377     1.14354
  Fock        0.00000     0.00000     0.00000     0.00000     0.00000     0.00000
  -------------------------------------------------------------------------------------
  Total      -0.49198    -0.49198    -0.22513     0.00000    -0.00000    -0.00000
  in kB      -1.09851    -1.09851    -0.50267     0.00000    -0.00000    -0.00000
  external pressure =       -0.90 kB  Pullay stress =        0.00 kB


 VOLUME and BASIS-vectors are now :
 -----------------------------------------------------------------------------
  energy-cutoff  :      520.00
  volume of cell :      717.56
      direct lattice vectors                 reciprocal lattice vectors
     6.057076871 -0.000000016 -0.000000000     0.165096138 -0.095318294 -0.000000000
     3.028538133  5.245582204  0.000000000     0.000000000  0.190636608  0.000000000
     0.000000000 -0.000000000 22.584037460     0.000000000 -0.000000000  0.044279062

  length of vectors
     6.057076871  6.057076513 22.584037460     0.190636597  0.190636608  0.044279062


 FORCES acting on ions
    electron-ion (+dipol)            ewald-force                    non-local-force                 convergence-correction
 -----------------------------------------------------------------------------------------------
   -.107E-03 -.625E-04 0.399E+00   0.390E-03 0.231E-03 -.402E+00   0.174E-17 0.693E-17 0.137E-01   0.221E-07 0.365E-08 0.727E-03
   0.107E-03 0.625E-04 -.399E+00   -.390E-03 -.231E-03 0.402E+00   -.347E-17 -.346E-17 -.137E-01   -.221E-07 -.365E-08 -.727E-03
   -.291E-04 -.229E-04 0.221E+03   -.197E-03 -.110E-03 -.217E+03   0.499E-17 -.202E-18 -.429E+01   0.285E-07 0.382E-07 0.262E-01
   0.291E-04 0.229E-04 -.221E+03   0.197E-03 0.110E-03 0.217E+03   0.124E-16 0.541E-17 0.429E+01   -.285E-07 -.382E-07 -.262E-01
   -.834E+01 -.774E-01 -.450E+03   0.417E+01 0.809E-01 0.454E+03   0.419E+01 -.409E-02 -.356E+01   0.151E-02 0.610E-03 -.612E-01
   0.410E+01 0.725E+01 -.450E+03   -.202E+01 -.365E+01 0.454E+03   -.210E+01 -.363E+01 -.356E+01   -.225E-03 -.161E-02 -.612E-01
   0.423E+01 -.718E+01 -.450E+03   -.216E+01 0.357E+01 0.454E+03   -.209E+01 0.363E+01 -.356E+01   -.128E-02 0.100E-02 -.612E-01
   0.834E+01 0.774E-01 0.450E+03   -.417E+01 -.809E-01 -.454E+03   -.419E+01 0.409E-02 0.356E+01   -.151E-02 -.610E-03 0.612E-01
   -.410E+01 -.725E+01 0.450E+03   0.202E+01 0.365E+01 -.454E+03   0.210E+01 0.363E+01 0.356E+01   0.225E-03 0.161E-02 0.612E-01
   -.423E+01 0.718E+01 0.450E+03   0.216E+01 -.357E+01 -.454E+03   0.209E+01 -.363E+01 0.356E+01   0.128E-02 -.100E-02 0.612E-01
 -----------------------------------------------------------------------------------------------
   -.777E-10 -.838E-10 0.640E-10   0.178E-14 -.533E-14 -.568E-13   -.178E-14 0.888E-15 0.888E-15   -.572E-12 0.400E-13 0.302E-10


 POSITION                                       TOTAL-FORCE (eV/Angst)
 -----------------------------------------------------------------------------------
      3.02854      1.74853     11.29032        -0.000000     -0.000000      0.010867
      6.05708      3.49706     11.29371        -0.000000      0.000000     -0.010867
      0.00000     -0.00000     10.12253        -0.000000      0.000000     -0.115444
      0.00000     -0.00000     12.46151         0.000000     -0.000000      0.115444
      3.80050      0.00042     12.82760         0.030568      0.000865     -0.013531
      1.12865      1.95405     12.82760        -0.014535     -0.026905     -0.013531
      4.15647      3.29112     12.82760        -0.016033      0.026040     -0.013531
      2.25658     -0.00042      9.75644        -0.030568     -0.000865      0.013531
      1.89988      3.29153      9.75644         0.014535      0.026905      0.013531
      4.92914      1.95446      9.75644         0.016033     -0.026040      0.013531
 -----------------------------------------------------------------------------------
    total drift:                               -0.000000     -0.000000      0.000000


--------------------------------------------------------------------------------------------------------



  FREE ENERGIE OF THE ION-ELECTRON SYSTEM (eV)
  ---------------------------------------------------
  free  energy   TOTEN  =       -53.17226972 eV

  energy  without entropy=      -53.17226972  energy(sigma->0) =      -53.17226972

 d Force =-0.3953305E-03[-0.371E-03,-0.420E-03]  d Energy = 0.3767225E-03-0.772E-03
 d Force = 0.2609816E+01[ 0.261E+01, 0.261E+01]  d Ewald  =-0.1527687E+02 0.179E+02


--------------------------------------------------------------------------------------------------------


    POTLOK:  cpu time   51.8760: real time   52.0323


--------------------------------------------------------------------------------------------------------




--------------------------------------------------------------------------------------------------------


  
 reached required accuracy - stopping structural energy minimisation
     LOOP+:  cpu time  374.3520: real time  375.8457
    4ORBIT:  cpu time    0.0000: real time    0.0000



 total charge     

# of ion       s       p       d       tot
------------------------------------------
    1        0.354   0.499   4.219   5.072
    2        0.354   0.499   4.219   5.072
    3        1.129   1.180   0.132   2.441
    4        1.129   1.180   0.132   2.441
    5        1.364   2.340   0.000   3.704
    6        1.360   2.346   0.000   3.707
    7        1.364   2.339   0.000   3.703
    8        1.364   2.340   0.000   3.704
    9        1.360   2.346   0.000   3.707
   10        1.364   2.339   0.000   3.703
--------------------------------------------------
tot         11.144  17.410   8.702  37.256



 magnetization (x)

# of ion       s       p       d       tot
------------------------------------------
    1        0.033   0.040   2.874   2.947
    2        0.033   0.040   2.874   2.947
    3        0.003   0.053  -0.001   0.054
    4        0.003   0.053  -0.001   0.054
    5       -0.000  -0.060   0.000  -0.061
    6       -0.002  -0.051   0.000  -0.052
    7       -0.001  -0.057   0.000  -0.057
    8       -0.000  -0.060   0.000  -0.061
    9       -0.002  -0.051   0.000  -0.052
   10       -0.001  -0.057   0.000  -0.057
--------------------------------------------------
tot          0.067  -0.150   5.745   5.662

 BZINTS: Fermi energy: -3.233379; 56.000000 electrons
         Band energy:-462.115463;  BLOECHL correction:  0.000000

 total amount of memory used by VASP MPI-rank0   129271. kBytes
=======================================================================

   base      :      30000. kBytes
   nonlr-proj:       8976. kBytes
   fftplans  :      11247. kBytes
   grid      :      66142. kBytes
   one-center:        311. kBytes
   wavefun   :      12595. kBytes

  
  
 General timing and accounting informations for this job:
 ========================================================
  
                  Total CPU time used (sec):    10819.200
                            User time (sec):    10563.012
                          System time (sec):      256.188
                         Elapsed time (sec):    10880.964
  
                   Maximum memory used (kb):      381012.
                   Average memory used (kb):           0.
  
                          Minor page faults:     10814198
                          Major page faults:            5
                 Voluntary context switches:          970
