PROCAR lm decomposed
# of k-points:    5         # of bands:   48         # of ions:   10

 k-point     1 :    0.00000000 0.00000000 0.00000000     weight = 0.04000000

band     1 # energy  -17.34524377 # occ.  1.00000000

ion      s     py     pz     px    dxy    dyz    dz2    dxz  x2-y2    tot
    1  0.021  0.000  0.000  0.000  0.000  0.000  0.000  0.000  0.000  0.021
    2  0.021  0.000  0.000  0.000  0.000  0.000  0.000  0.000  0.000  0.021
    3  0.074  0.000  0.000  0.000  0.000  0.000  0.000  0.000  0.000  0.074
    4  0.074  0.000  0.000  0.000  0.000  0.000  0.000  0.000  0.000  0.074
    5  0.076  0.000  0.001  0.001  0.000  0.000  0.000  0.000  0.000  0.078
    6  0.076  0.001  0.001  0.000  0.000  0.000  0.000  0.000  0.000  0.078
    7  0.076  0.001  0.001  0.000  0.000  0.000  0.000  0.000  0.000  0.078
    8  0.076  0.000  0.001  0.001  0.000  0.000  0.000  0.000  0.000  0.078
    9  0.076  0.001  0.001  0.000  0.000  0.000  0.000  0.000  0.000  0.078
   10  0.076  0.001  0.001  0.000  0.000  0.000  0.000  0.000  0.000  0.078
tot    0.646  0.002  0.006  0.002  0.000  0.000  0.000  0.000  0.000  0.657

band     2 # energy  -16.34521014 # occ.  1.00000000

ion      s     py     pz     px    dxy    dyz    dz2    dxz  x2-y2    tot
    1  0.000  0.000  0.010  0.000  0.000  0.000  0.000  0.000  0.000  0.010
    2  0.000  0.000  0.010  0.000  0.000  0.000  0.000  0.000  0.000  0.010
    3  0.046  0.000  0.002  0.000  0.000  0.000  0.001  0.000  0.000  0.050
    4  0.046  0.000  0.002  0.000  0.000  0.000  0.001  0.000  0.000  0.050
    5  0.093  0.000  0.000  0.001  0.000  0.000  0.000  0.000  0.000  0.094
    6  0.093  0.001  0.000  0.000  0.000  0.000  0.000  0.000  0.000  0.094
    7  0.093  0.001  0.000  0.000  0.000  0.000  0.000  0.000  0.000  0.094
    8  0.093  0.000  0.000  0.001  0.000  0.000  0.000  0.000  0.000  0.094
    9  0.093  0.001  0.000  0.000  0.000  0.000  0.000  0.000  0.000  0.094
   10  0.093  0.001  0.000  0.000  0.000  0.000  0.000  0.000  0.000  0.094
tot    0.651  0.002  0.025  0.002  0.000  0.000  0.003  0.000  0.000  0.684

band     3 # energy  -15.21053783 # occ.  1.00000000

ion      s     py     pz     px    dxy    dyz    dz2    dxz  x2-y2    tot
    1  0.000  0.000  0.000  0.002  0.004  0.010  0.000  0.000  0.000  0.016
    2  0.000  0.000  0.000  0.002  0.004  0.010  0.000  0.000  0.000  0.016
    3  0.000  0.000  0.000  0.016  0.000  0.000  0.000  0.000  0.002  0.018
    4  0.000  0.000  0.000  0.016  0.000  0.000  0.000  0.000  0.002  0.018
    5  0.217  0.000  0.001  0.001  0.000  0.000  0.000  0.000  0.000  0.219
    6  0.074  0.000  0.000  0.000  0.000  0.000  0.000  0.000  0.000  0.075
    7  0.037  0.000  0.000  0.000  0.000  0.000  0.000  0.000  0.000  0.037
    8  0.217  0.000  0.001  0.001  0.000  0.000  0.000  0.000  0.000  0.219
    9  0.074  0.000  0.000  0.000  0.000  0.000  0.000  0.000  0.000  0.075
   10  0.037  0.000  0.000  0.000  0.000  0.000  0.000  0.000  0.000  0.037
tot    0.656  0.002  0.003  0.040  0.007  0.020  0.000  0.000  0.004  0.732

band     4 # energy  -15.21049774 # occ.  1.00000000

ion      s     py     pz     px    dxy    dyz    dz2    dxz  x2-y2    tot
    1  0.000  0.002  0.000  0.000  0.000  0.000  0.000  0.010  0.004  0.016
    2  0.000  0.002  0.000  0.000  0.000  0.000  0.000  0.010  0.004  0.016
    3  0.000  0.016  0.000  0.000  0.002  0.000  0.000  0.000  0.000  0.018
    4  0.000  0.016  0.000  0.000  0.002  0.000  0.000  0.000  0.000  0.018
    5  0.002  0.000  0.000  0.000  0.000  0.000  0.000  0.000  0.000  0.002
    6  0.144  0.001  0.001  0.000  0.000  0.000  0.000  0.000  0.000  0.146
    7  0.182  0.001  0.001  0.000  0.000  0.000  0.000  0.000  0.000  0.184
    8  0.002  0.000  0.000  0.000  0.000  0.000  0.000  0.000  0.000  0.002
    9  0.144  0.001  0.001  0.000  0.000  0.000  0.000  0.000  0.000  0.146
   10  0.182  0.001  0.001  0.000  0.000  0.000  0.000  0.000  0.000  0.184
tot    0.656  0.040  0.003  0.002  0.004  0.000  0.000  0.020  0.007  0.732

band     5 # energy  -15.19620970 # occ.  1.00000000

ion      s     py     pz     px    dxy    dyz    dz2    dxz  x2-y2    tot
    1  0.000  0.010  0.000  0.000  0.000  0.000  0.000  0.002  0.003  0.015
    2  0.000  0.010  0.000  0.000  0.000  0.000  0.000  0.002  0.003  0.015
    3  0.000  0.000  0.000  0.010  0.000  0.000  0.000  0.000  0.002  0.013
    4  0.000  0.000  0.000  0.010  0.000  0.000  0.000  0.000  0.002  0.013
    5  0.213  0.000  0.001  0.001  0.000  0.000  0.000  0.000  0.000  0.215
    6  0.101  0.000  0.000  0.000  0.000  0.000  0.000  0.000  0.000  0.102
    7  0.021  0.000  0.000  0.000  0.000  0.000  0.000  0.000  0.000  0.021
    8  0.213  0.000  0.001  0.001  0.000  0.000  0.000  0.000  0.000  0.215
    9  0.101  0.000  0.000  0.000  0.000  0.000  0.000  0.000  0.000  0.102
   10  0.021  0.000  0.000  0.000  0.000  0.000  0.000  0.000  0.000  0.021
tot    0.669  0.021  0.003  0.023  0.000  0.000  0.000  0.005  0.009  0.731

band     6 # energy  -15.19617602 # occ.  1.00000000

ion      s     py     pz     px    dxy    dyz    dz2    dxz  x2-y2    tot
    1  0.000  0.000  0.000  0.010  0.003  0.002  0.000  0.000  0.000  0.015
    2  0.000  0.000  0.000  0.010  0.003  0.002  0.000  0.000  0.000  0.015
    3  0.000  0.010  0.000  0.000  0.002  0.000  0.000  0.000  0.000  0.013
    4  0.000  0.010  0.000  0.000  0.002  0.000  0.000  0.000  0.000  0.013
    5  0.010  0.000  0.000  0.000  0.000  0.000  0.000  0.000  0.000  0.010
    6  0.122  0.000  0.001  0.000  0.000  0.000  0.000  0.000  0.000  0.123
    7  0.202  0.000  0.001  0.000  0.000  0.000  0.000  0.000  0.000  0.204
    8  0.010  0.000  0.000  0.000  0.000  0.000  0.000  0.000  0.000  0.010
    9  0.122  0.000  0.001  0.000  0.000  0.000  0.000  0.000  0.000  0.123
   10  0.202  0.000  0.001  0.000  0.000  0.000  0.000  0.000  0.000  0.204
tot    0.669  0.023  0.003  0.021  0.009  0.005  0.000  0.000  0.000  0.731

band     7 # energy  -12.00320893 # occ.  1.00000000

ion      s     py     pz     px    dxy    dyz    dz2    dxz  x2-y2    tot
    1  0.015  0.000  0.000  0.000  0.000  0.000  0.002  0.000  0.000  0.017
    2  0.015  0.000  0.000  0.000  0.000  0.000  0.002  0.000  0.000  0.017
    3  0.220  0.000  0.012  0.000  0.000  0.000  0.002  0.000  0.000  0.234
    4  0.220  0.000  0.012  0.000  0.000  0.000  0.002  0.000  0.000  0.234
    5  0.021  0.000  0.000  0.014  0.000  0.000  0.000  0.000  0.000  0.035
    6  0.021  0.010  0.000  0.003  0.000  0.000  0.000  0.000  0.000  0.035
    7  0.021  0.010  0.000  0.003  0.000  0.000  0.000  0.000  0.000  0.035
    8  0.021  0.000  0.000  0.014  0.000  0.000  0.000  0.000  0.000  0.035
    9  0.021  0.010  0.000  0.003  0.000  0.000  0.000  0.000  0.000  0.035
   10  0.021  0.010  0.000  0.003  0.000  0.000  0.000  0.000  0.000  0.035
tot    0.599  0.041  0.025  0.041  0.000  0.000  0.006  0.000  0.000  0.712

band     8 # energy   -9.88711814 # occ.  1.00000000

ion      s     py     pz     px    dxy    dyz    dz2    dxz  x2-y2    tot
    1  0.000  0.000  0.011  0.000  0.000  0.000  0.000  0.000  0.000  0.011
    2  0.000  0.000  0.011  0.000  0.000  0.000  0.000  0.000  0.000  0.011
    3  0.203  0.000  0.011  0.000  0.000  0.000  0.001  0.000  0.000  0.215
    4  0.203  0.000  0.011  0.000  0.000  0.000  0.001  0.000  0.000  0.215
    5  0.014  0.000  0.000  0.027  0.000  0.000  0.000  0.000  0.000  0.041
    6  0.014  0.021  0.000  0.007  0.000  0.000  0.000  0.000  0.000  0.041
    7  0.014  0.021  0.000  0.007  0.000  0.000  0.000  0.000  0.000  0.041
    8  0.014  0.000  0.000  0.027  0.000  0.000  0.000  0.000  0.000  0.041
    9  0.014  0.021  0.000  0.007  0.000  0.000  0.000  0.000  0.000  0.041
   10  0.014  0.021  0.000  0.007  0.000  0.000  0.000  0.000  0.000  0.041
tot    0.488  0.082  0.044  0.082  0.000  0.000  0.002  0.000  0.000  0.698

band     9 # energy   -8.28814355 # occ.  1.00000000

ion      s     py     pz     px    dxy    dyz    dz2    dxz  x2-y2    tot
    1  0.000  0.003  0.000  0.003  0.002  0.023  0.000  0.026  0.003  0.059
    2  0.000  0.003  0.000  0.003  0.002  0.023  0.000  0.026  0.003  0.059
    3  0.000  0.031  0.000  0.028  0.000  0.000  0.000  0.000  0.000  0.060
    4  0.000  0.031  0.000  0.028  0.000  0.000  0.000  0.000  0.000  0.060
    5  0.003  0.011  0.001  0.035  0.000  0.000  0.000  0.000  0.000  0.050
    6  0.006  0.060  0.001  0.010  0.000  0.000  0.000  0.000  0.000  0.078
    7  0.001  0.000  0.000  0.026  0.000  0.000  0.000  0.000  0.000  0.027
    8  0.003  0.011  0.001  0.035  0.000  0.000  0.000  0.000  0.000  0.050
    9  0.006  0.060  0.001  0.010  0.000  0.000  0.000  0.000  0.000  0.078
   10  0.001  0.000  0.000  0.026  0.000  0.000  0.000  0.000  0.000  0.027
tot    0.020  0.212  0.004  0.204  0.005  0.046  0.000  0.051  0.006  0.548

band    10 # energy   -8.28812049 # occ.  1.00000000

ion      s     py     pz     px    dxy    dyz    dz2    dxz  x2-y2    tot
    1  0.000  0.003  0.000  0.003  0.003  0.026  0.000  0.023  0.002  0.059
    2  0.000  0.003  0.000  0.003  0.003  0.026  0.000  0.023  0.002  0.059
    3  0.000  0.028  0.000  0.031  0.000  0.000  0.000  0.000  0.000  0.060
    4  0.000  0.028  0.000  0.031  0.000  0.000  0.000  0.000  0.000  0.060
    5  0.004  0.010  0.001  0.039  0.000  0.000  0.000  0.000  0.000  0.053
    6  0.000  0.000  0.000  0.024  0.000  0.000  0.000  0.000  0.000  0.025
    7  0.006  0.061  0.001  0.009  0.000  0.000  0.000  0.000  0.000  0.077
    8  0.004  0.010  0.001  0.039  0.000  0.000  0.000  0.000  0.000  0.053
    9  0.000  0.000  0.000  0.024  0.000  0.000  0.000  0.000  0.000  0.025
   10  0.006  0.061  0.001  0.009  0.000  0.000  0.000  0.000  0.000  0.077
tot    0.020  0.204  0.004  0.212  0.006  0.051  0.000  0.046  0.005  0.548

band    11 # energy   -8.07059664 # occ.  1.00000000

ion      s     py     pz     px    dxy    dyz    dz2    dxz  x2-y2    tot
    1  0.046  0.000  0.000  0.000  0.000  0.000  0.024  0.000  0.000  0.070
    2  0.046  0.000  0.000  0.000  0.000  0.000  0.024  0.000  0.000  0.070
    3  0.001  0.000  0.048  0.000  0.000  0.000  0.000  0.000  0.000  0.050
    4  0.001  0.000  0.048  0.000  0.000  0.000  0.000  0.000  0.000  0.050
    5  0.003  0.000  0.039  0.005  0.000  0.000  0.000  0.000  0.000  0.048
    6  0.003  0.004  0.039  0.001  0.000  0.000  0.000  0.000  0.000  0.048
    7  0.003  0.004  0.039  0.001  0.000  0.000  0.000  0.000  0.000  0.048
    8  0.003  0.000  0.039  0.005  0.000  0.000  0.000  0.000  0.000  0.048
    9  0.003  0.004  0.039  0.001  0.000  0.000  0.000  0.000  0.000  0.048
   10  0.003  0.004  0.039  0.001  0.000  0.000  0.000  0.000  0.000  0.048
tot    0.116  0.016  0.330  0.016  0.000  0.000  0.048  0.000  0.000  0.526

band    12 # energy   -7.84375769 # occ.  1.00000000

ion      s     py     pz     px    dxy    dyz    dz2    dxz  x2-y2    tot
    1  0.081  0.000  0.000  0.000  0.000  0.000  0.031  0.000  0.000  0.113
    2  0.081  0.000  0.000  0.000  0.000  0.000  0.031  0.000  0.000  0.113
    3  0.000  0.000  0.000  0.000  0.000  0.000  0.000  0.000  0.000  0.000
    4  0.000  0.000  0.000  0.000  0.000  0.000  0.000  0.000  0.000  0.000
    5  0.000  0.058  0.000  0.000  0.000  0.000  0.000  0.000  0.000  0.058
    6  0.000  0.014  0.000  0.043  0.000  0.000  0.000  0.000  0.000  0.058
    7  0.000  0.014  0.000  0.043  0.000  0.000  0.000  0.000  0.000  0.058
    8  0.000  0.058  0.000  0.000  0.000  0.000  0.000  0.000  0.000  0.058
    9  0.000  0.014  0.000  0.043  0.000  0.000  0.000  0.000  0.000  0.058
   10  0.000  0.014  0.000  0.043  0.000  0.000  0.000  0.000  0.000  0.058
tot    0.162  0.173  0.000  0.173  0.000  0.000  0.063  0.000  0.000  0.572

band    13 # energy   -7.84188816 # occ.  1.00000000

ion      s     py     pz     px    dxy    dyz    dz2    dxz  x2-y2    tot
    1  0.000  0.019  0.000  0.003  0.002  0.002  0.000  0.015  0.014  0.055
    2  0.000  0.019  0.000  0.003  0.002  0.002  0.000  0.015  0.014  0.055
    3  0.000  0.006  0.000  0.040  0.000  0.000  0.000  0.001  0.000  0.048
    4  0.000  0.006  0.000  0.040  0.000  0.000  0.000  0.001  0.000  0.048
    5  0.000  0.003  0.006  0.073  0.000  0.000  0.000  0.000  0.000  0.083
    6  0.000  0.060  0.005  0.001  0.000  0.000  0.000  0.000  0.000  0.065
    7  0.000  0.012  0.000  0.011  0.000  0.000  0.000  0.000  0.000  0.024
    8  0.000  0.003  0.006  0.073  0.000  0.000  0.000  0.000  0.000  0.083
    9  0.000  0.060  0.005  0.001  0.000  0.000  0.000  0.000  0.000  0.065
   10  0.000  0.012  0.000  0.011  0.000  0.000  0.000  0.000  0.000  0.024
tot    0.001  0.201  0.022  0.258  0.004  0.005  0.000  0.032  0.028  0.551

band    14 # energy   -7.84186702 # occ.  1.00000000

ion      s     py     pz     px    dxy    dyz    dz2    dxz  x2-y2    tot
    1  0.000  0.003  0.000  0.019  0.014  0.015  0.000  0.002  0.002  0.055
    2  0.000  0.003  0.000  0.019  0.014  0.015  0.000  0.002  0.002  0.055
    3  0.000  0.040  0.000  0.006  0.000  0.001  0.000  0.000  0.000  0.048
    4  0.000  0.040  0.000  0.006  0.000  0.001  0.000  0.000  0.000  0.048
    5  0.000  0.019  0.001  0.012  0.000  0.000  0.000  0.000  0.000  0.032
    6  0.000  0.009  0.003  0.037  0.000  0.000  0.000  0.000  0.000  0.049
    7  0.000  0.057  0.007  0.026  0.000  0.000  0.000  0.000  0.000  0.091
    8  0.000  0.019  0.001  0.012  0.000  0.000  0.000  0.000  0.000  0.032
    9  0.000  0.009  0.003  0.037  0.000  0.000  0.000  0.000  0.000  0.049
   10  0.000  0.057  0.007  0.026  0.000  0.000  0.000  0.000  0.000  0.091
tot    0.001  0.258  0.022  0.201  0.028  0.032  0.000  0.005  0.004  0.551

band    15 # energy   -6.59161679 # occ.  1.00000000

ion      s     py     pz     px    dxy    dyz    dz2    dxz  x2-y2    tot
    1  0.000  0.000  0.054  0.000  0.000  0.000  0.000  0.000  0.000  0.054
    2  0.000  0.000  0.054  0.000  0.000  0.000  0.000  0.000  0.000  0.054
    3  0.000  0.000  0.000  0.000  0.000  0.000  0.000  0.000  0.000  0.000
    4  0.000  0.000  0.000  0.000  0.000  0.000  0.000  0.000  0.000  0.000
    5  0.000  0.072  0.000  0.000  0.000  0.000  0.000  0.000  0.000  0.072
    6  0.000  0.018  0.000  0.054  0.000  0.000  0.000  0.000  0.000  0.072
    7  0.000  0.018  0.000  0.054  0.000  0.000  0.000  0.000  0.000  0.072
    8  0.000  0.072  0.000  0.000  0.000  0.000  0.000  0.000  0.000  0.072
    9  0.000  0.018  0.000  0.054  0.000  0.000  0.000  0.000  0.000  0.072
   10  0.000  0.018  0.000  0.054  0.000  0.000  0.000  0.000  0.000  0.072
tot    0.000  0.217  0.107  0.217  0.000  0.000  0.000  0.000  0.000  0.542

band    16 # energy   -6.03418545 # occ.  1.00000000

ion      s     py     pz     px    dxy    dyz    dz2    dxz  x2-y2    tot
    1  0.000  0.002  0.000  0.000  0.000  0.000  0.000  0.101  0.116  0.219
    2  0.000  0.002  0.000  0.000  0.000  0.000  0.000  0.101  0.116  0.219
    3  0.000  0.000  0.000  0.000  0.000  0.000  0.000  0.000  0.001  0.001
    4  0.000  0.000  0.000  0.000  0.000  0.000  0.000  0.000  0.001  0.001
    5  0.002  0.000  0.044  0.003  0.000  0.000  0.000  0.000  0.000  0.049
    6  0.001  0.006  0.011  0.034  0.000  0.000  0.000  0.000  0.000  0.051
    7  0.001  0.006  0.011  0.034  0.000  0.000  0.000  0.000  0.000  0.051
    8  0.002  0.000  0.044  0.003  0.000  0.000  0.000  0.000  0.000  0.049
    9  0.001  0.006  0.011  0.034  0.000  0.000  0.000  0.000  0.000  0.051
   10  0.001  0.006  0.011  0.034  0.000  0.000  0.000  0.000  0.000  0.051
tot    0.007  0.026  0.132  0.142  0.000  0.000  0.000  0.203  0.235  0.746

band    17 # energy   -6.03417378 # occ.  1.00000000

ion      s     py     pz     px    dxy    dyz    dz2    dxz  x2-y2    tot
    1  0.000  0.000  0.000  0.002  0.116  0.101  0.000  0.000  0.000  0.219
    2  0.000  0.000  0.000  0.002  0.116  0.101  0.000  0.000  0.000  0.219
    3  0.000  0.000  0.000  0.000  0.001  0.000  0.000  0.000  0.000  0.001
    4  0.000  0.000  0.000  0.000  0.001  0.000  0.000  0.000  0.000  0.001
    5  0.000  0.052  0.000  0.000  0.000  0.000  0.000  0.000  0.000  0.052
    6  0.002  0.010  0.033  0.005  0.000  0.000  0.000  0.000  0.000  0.050
    7  0.002  0.010  0.033  0.006  0.000  0.000  0.000  0.000  0.000  0.050
    8  0.000  0.052  0.000  0.000  0.000  0.000  0.000  0.000  0.000  0.052
    9  0.002  0.010  0.033  0.005  0.000  0.000  0.000  0.000  0.000  0.050
   10  0.002  0.010  0.033  0.006  0.000  0.000  0.000  0.000  0.000  0.050
tot    0.007  0.142  0.132  0.026  0.235  0.203  0.000  0.000  0.000  0.746

band    18 # energy   -5.68819887 # occ.  1.00000000

ion      s     py     pz     px    dxy    dyz    dz2    dxz  x2-y2    tot
    1  0.000  0.000  0.000  0.002  0.084  0.066  0.000  0.008  0.011  0.171
    2  0.000  0.000  0.000  0.002  0.084  0.066  0.000  0.008  0.011  0.171
    3  0.000  0.000  0.000  0.000  0.000  0.000  0.000  0.003  0.000  0.004
    4  0.000  0.000  0.000  0.000  0.000  0.000  0.000  0.003  0.000  0.004
    5  0.006  0.000  0.092  0.001  0.000  0.000  0.000  0.000  0.000  0.100
    6  0.004  0.002  0.060  0.000  0.000  0.000  0.000  0.000  0.000  0.066
    7  0.000  0.001  0.003  0.002  0.000  0.000  0.000  0.000  0.000  0.007
    8  0.006  0.000  0.092  0.001  0.000  0.000  0.000  0.000  0.000  0.100
    9  0.004  0.002  0.060  0.000  0.000  0.000  0.000  0.000  0.000  0.066
   10  0.000  0.001  0.003  0.002  0.000  0.000  0.000  0.000  0.000  0.007
tot    0.019  0.008  0.312  0.012  0.169  0.132  0.000  0.022  0.021  0.695

band    19 # energy   -5.68817938 # occ.  1.00000000

ion      s     py     pz     px    dxy    dyz    dz2    dxz  x2-y2    tot
    1  0.000  0.002  0.000  0.000  0.011  0.008  0.000  0.066  0.084  0.171
    2  0.000  0.002  0.000  0.000  0.011  0.008  0.000  0.066  0.084  0.171
    3  0.000  0.000  0.000  0.000  0.000  0.003  0.000  0.000  0.000  0.004
    4  0.000  0.000  0.000  0.000  0.000  0.003  0.000  0.000  0.000  0.004
    5  0.001  0.003  0.012  0.000  0.000  0.000  0.000  0.000  0.000  0.016
    6  0.003  0.000  0.044  0.003  0.000  0.000  0.000  0.000  0.000  0.049
    7  0.006  0.001  0.101  0.001  0.000  0.000  0.000  0.000  0.000  0.108
    8  0.001  0.003  0.012  0.000  0.000  0.000  0.000  0.000  0.000  0.016
    9  0.003  0.000  0.044  0.003  0.000  0.000  0.000  0.000  0.000  0.049
   10  0.006  0.001  0.101  0.001  0.000  0.000  0.000  0.000  0.000  0.108
tot    0.019  0.012  0.312  0.008  0.021  0.022  0.000  0.132  0.169  0.695

band    20 # energy   -4.98048571 # occ.  1.00000000

ion      s     py     pz     px    dxy    dyz    dz2    dxz  x2-y2    tot
    1  0.000  0.000  0.013  0.000  0.000  0.000  0.000  0.000  0.000  0.013
    2  0.000  0.000  0.013  0.000  0.000  0.000  0.000  0.000  0.000  0.013
    3  0.002  0.000  0.009  0.000  0.000  0.000  0.003  0.000  0.000  0.013
    4  0.002  0.000  0.009  0.000  0.000  0.000  0.003  0.000  0.000  0.013
    5  0.000  0.000  0.077  0.000  0.000  0.000  0.000  0.000  0.000  0.078
    6  0.000  0.000  0.077  0.000  0.000  0.000  0.000  0.000  0.000  0.078
    7  0.000  0.000  0.077  0.000  0.000  0.000  0.000  0.000  0.000  0.078
    8  0.000  0.000  0.077  0.000  0.000  0.000  0.000  0.000  0.000  0.078
    9  0.000  0.000  0.077  0.000  0.000  0.000  0.000  0.000  0.000  0.078
   10  0.000  0.000  0.077  0.000  0.000  0.000  0.000  0.000  0.000  0.078
tot    0.004  0.000  0.507  0.000  0.000  0.000  0.005  0.000  0.000  0.517

band    21 # energy   -4.85899369 # occ.  1.00000000

ion      s     py     pz     px    dxy    dyz    dz2    dxz  x2-y2    tot
    1  0.000  0.000  0.000  0.000  0.000  0.000  0.250  0.000  0.000  0.250
    2  0.000  0.000  0.000  0.000  0.000  0.000  0.250  0.000  0.000  0.250
    3  0.008  0.000  0.078  0.000  0.000  0.000  0.005  0.000  0.000  0.091
    4  0.008  0.000  0.078  0.000  0.000  0.000  0.005  0.000  0.000  0.091
    5  0.000  0.000  0.002  0.014  0.000  0.000  0.000  0.000  0.000  0.016
    6  0.000  0.010  0.002  0.003  0.000  0.000  0.000  0.000  0.000  0.016
    7  0.000  0.010  0.002  0.003  0.000  0.000  0.000  0.000  0.000  0.016
    8  0.000  0.000  0.002  0.014  0.000  0.000  0.000  0.000  0.000  0.016
    9  0.000  0.010  0.002  0.003  0.000  0.000  0.000  0.000  0.000  0.016
   10  0.000  0.010  0.002  0.003  0.000  0.000  0.000  0.000  0.000  0.016
tot    0.018  0.041  0.167  0.041  0.000  0.000  0.510  0.000  0.000  0.778

band    22 # energy   -4.80402694 # occ.  1.00000000

ion      s     py     pz     px    dxy    dyz    dz2    dxz  x2-y2    tot
    1  0.000  0.016  0.000  0.000  0.000  0.000  0.000  0.037  0.001  0.054
    2  0.000  0.016  0.000  0.000  0.000  0.000  0.000  0.037  0.001  0.054
    3  0.000  0.000  0.000  0.018  0.000  0.000  0.000  0.000  0.005  0.023
    4  0.000  0.000  0.000  0.018  0.000  0.000  0.000  0.000  0.005  0.023
    5  0.005  0.000  0.092  0.037  0.000  0.000  0.000  0.000  0.000  0.135
    6  0.002  0.001  0.030  0.026  0.000  0.000  0.000  0.000  0.000  0.059
    7  0.001  0.000  0.017  0.025  0.000  0.000  0.000  0.000  0.000  0.043
    8  0.005  0.000  0.092  0.037  0.000  0.000  0.000  0.000  0.000  0.135
    9  0.002  0.001  0.030  0.026  0.000  0.000  0.000  0.000  0.000  0.059
   10  0.001  0.000  0.017  0.025  0.000  0.000  0.000  0.000  0.000  0.043
tot    0.016  0.035  0.278  0.215  0.000  0.001  0.000  0.073  0.012  0.630

band    23 # energy   -4.80401611 # occ.  1.00000000

ion      s     py     pz     px    dxy    dyz    dz2    dxz  x2-y2    tot
    1  0.000  0.000  0.000  0.016  0.001  0.037  0.000  0.000  0.000  0.054
    2  0.000  0.000  0.000  0.016  0.001  0.037  0.000  0.000  0.000  0.054
    3  0.000  0.018  0.000  0.000  0.005  0.000  0.000  0.000  0.000  0.023
    4  0.000  0.018  0.000  0.000  0.005  0.000  0.000  0.000  0.000  0.023
    5  0.000  0.023  0.001  0.000  0.000  0.000  0.000  0.000  0.000  0.024
    6  0.003  0.032  0.063  0.000  0.000  0.000  0.000  0.000  0.000  0.099
    7  0.004  0.034  0.076  0.001  0.000  0.000  0.000  0.000  0.000  0.115
    8  0.000  0.023  0.001  0.000  0.000  0.000  0.000  0.000  0.000  0.024
    9  0.003  0.032  0.063  0.000  0.000  0.000  0.000  0.000  0.000  0.099
   10  0.004  0.034  0.076  0.001  0.000  0.000  0.000  0.000  0.000  0.115
tot    0.016  0.215  0.278  0.035  0.012  0.073  0.000  0.001  0.000  0.630

band    24 # energy   -4.04109754 # occ.  1.00000000

ion      s     py     pz     px    dxy    dyz    dz2    dxz  x2-y2    tot
    1  0.000  0.004  0.000  0.001  0.044  0.036  0.000  0.149  0.180  0.414
    2  0.000  0.004  0.000  0.001  0.044  0.036  0.000  0.149  0.180  0.414
    3  0.000  0.001  0.000  0.005  0.000  0.000  0.000  0.000  0.000  0.007
    4  0.000  0.001  0.000  0.005  0.000  0.000  0.000  0.000  0.000  0.007
    5  0.000  0.000  0.007  0.002  0.000  0.000  0.000  0.000  0.000  0.009
    6  0.000  0.002  0.006  0.000  0.000  0.000  0.000  0.000  0.000  0.008
    7  0.000  0.001  0.000  0.001  0.000  0.000  0.000  0.000  0.000  0.002
    8  0.000  0.000  0.007  0.002  0.000  0.000  0.000  0.000  0.000  0.009
    9  0.000  0.002  0.006  0.000  0.000  0.000  0.000  0.000  0.000  0.008
   10  0.000  0.001  0.000  0.001  0.000  0.000  0.000  0.000  0.000  0.002
tot    0.000  0.016  0.025  0.018  0.088  0.073  0.000  0.299  0.360  0.878

band    25 # energy   -4.04109498 # occ.  1.00000000

ion      s     py     pz     px    dxy    dyz    dz2    dxz  x2-y2    tot
    1  0.000  0.001  0.000  0.004  0.180  0.149  0.000  0.036  0.044  0.414
    2  0.000  0.001  0.000  0.004  0.180  0.149  0.000  0.036  0.044  0.414
    3  0.000  0.005  0.000  0.001  0.000  0.000  0.000  0.000  0.000  0.007
    4  0.000  0.005  0.000  0.001  0.000  0.000  0.000  0.000  0.000  0.007
    5  0.000  0.001  0.002  0.000  0.000  0.000  0.000  0.000  0.000  0.003
    6  0.000  0.000  0.003  0.002  0.000  0.000  0.000  0.000  0.000  0.005
    7  0.000  0.002  0.008  0.001  0.000  0.000  0.000  0.000  0.000  0.011
    8  0.000  0.001  0.002  0.000  0.000  0.000  0.000  0.000  0.000  0.003
    9  0.000  0.000  0.003  0.002  0.000  0.000  0.000  0.000  0.000  0.005
   10  0.000  0.002  0.008  0.001  0.000  0.000  0.000  0.000  0.000  0.011
tot    0.000  0.018  0.025  0.016  0.360  0.299  0.000  0.073  0.088  0.878

band    26 # energy   -3.83811713 # occ.  1.00000000

ion      s     py     pz     px    dxy    dyz    dz2    dxz  x2-y2    tot
    1  0.000  0.000  0.000  0.002  0.154  0.089  0.000  0.034  0.060  0.338
    2  0.000  0.000  0.000  0.002  0.154  0.089  0.000  0.034  0.060  0.338
    3  0.000  0.006  0.000  0.015  0.001  0.000  0.000  0.000  0.002  0.023
    4  0.000  0.006  0.000  0.015  0.001  0.000  0.000  0.000  0.002  0.023
    5  0.003  0.003  0.002  0.020  0.000  0.000  0.000  0.000  0.000  0.028
    6  0.000  0.004  0.000  0.010  0.000  0.000  0.000  0.000  0.000  0.014
    7  0.003  0.009  0.002  0.016  0.000  0.000  0.000  0.000  0.000  0.029
    8  0.003  0.003  0.002  0.020  0.000  0.000  0.000  0.000  0.000  0.028
    9  0.000  0.004  0.000  0.010  0.000  0.000  0.000  0.000  0.000  0.014
   10  0.003  0.009  0.002  0.016  0.000  0.000  0.000  0.000  0.000  0.029
tot    0.010  0.044  0.008  0.126  0.309  0.177  0.000  0.067  0.124  0.866

band    27 # energy   -3.83810405 # occ.  1.00000000

ion      s     py     pz     px    dxy    dyz    dz2    dxz  x2-y2    tot
    1  0.000  0.002  0.000  0.000  0.060  0.034  0.000  0.089  0.154  0.339
    2  0.000  0.002  0.000  0.000  0.060  0.034  0.000  0.089  0.154  0.339
    3  0.000  0.015  0.000  0.006  0.002  0.000  0.000  0.000  0.001  0.023
    4  0.000  0.015  0.000  0.006  0.002  0.000  0.000  0.000  0.001  0.023
    5  0.001  0.011  0.001  0.007  0.000  0.000  0.000  0.000  0.000  0.019
    6  0.003  0.021  0.003  0.007  0.000  0.000  0.000  0.000  0.000  0.034
    7  0.001  0.015  0.001  0.002  0.000  0.000  0.000  0.000  0.000  0.018
    8  0.001  0.011  0.001  0.007  0.000  0.000  0.000  0.000  0.000  0.019
    9  0.003  0.021  0.003  0.007  0.000  0.000  0.000  0.000  0.000  0.034
   10  0.001  0.015  0.001  0.002  0.000  0.000  0.000  0.000  0.000  0.018
tot    0.010  0.126  0.008  0.044  0.124  0.067  0.000  0.177  0.309  0.866

band    28 # energy   -3.81723975 # occ.  1.00000000

ion      s     py     pz     px    dxy    dyz    dz2    dxz  x2-y2    tot
    1  0.014  0.000  0.000  0.000  0.000  0.000  0.435  0.000  0.000  0.449
    2  0.014  0.000  0.000  0.000  0.000  0.000  0.435  0.000  0.000  0.449
    3  0.000  0.000  0.000  0.000  0.000  0.000  0.000  0.000  0.000  0.000
    4  0.000  0.000  0.000  0.000  0.000  0.000  0.000  0.000  0.000  0.000
    5  0.000  0.004  0.000  0.000  0.000  0.000  0.000  0.000  0.000  0.004
    6  0.000  0.001  0.000  0.003  0.000  0.000  0.000  0.000  0.000  0.004
    7  0.000  0.001  0.000  0.003  0.000  0.000  0.000  0.000  0.000  0.004
    8  0.000  0.004  0.000  0.000  0.000  0.000  0.000  0.000  0.000  0.004
    9  0.000  0.001  0.000  0.003  0.000  0.000  0.000  0.000  0.000  0.004
   10  0.000  0.001  0.000  0.003  0.000  0.000  0.000  0.000  0.000  0.004
tot    0.029  0.011  0.000  0.011  0.000  0.000  0.869  0.000  0.000  0.921

band    29 # energy   -3.70351963 # occ.  1.00000000

ion      s     py     pz     px    dxy    dyz    dz2    dxz  x2-y2    tot
    1  0.000  0.001  0.000  0.019  0.070  0.007  0.000  0.001  0.007  0.105
    2  0.000  0.001  0.000  0.019  0.070  0.007  0.000  0.001  0.007  0.105
    3  0.000  0.000  0.000  0.002  0.000  0.000  0.000  0.000  0.004  0.007
    4  0.000  0.000  0.000  0.002  0.000  0.000  0.000  0.000  0.004  0.007
    5  0.001  0.009  0.011  0.027  0.000  0.000  0.000  0.000  0.000  0.047
    6  0.000  0.018  0.001  0.100  0.000  0.000  0.000  0.000  0.000  0.118
    7  0.000  0.000  0.006  0.074  0.000  0.000  0.000  0.000  0.000  0.080
    8  0.001  0.009  0.011  0.027  0.000  0.000  0.000  0.000  0.000  0.047
    9  0.000  0.018  0.001  0.100  0.000  0.000  0.000  0.000  0.000  0.118
   10  0.000  0.000  0.006  0.074  0.000  0.000  0.000  0.000  0.000  0.080
tot    0.002  0.057  0.036  0.441  0.140  0.015  0.000  0.002  0.022  0.716

band    30 # energy   -3.70350267 # occ.  1.00000000

ion      s     py     pz     px    dxy    dyz    dz2    dxz  x2-y2    tot
    1  0.000  0.019  0.000  0.001  0.007  0.001  0.000  0.007  0.070  0.105
    2  0.000  0.019  0.000  0.001  0.007  0.001  0.000  0.007  0.070  0.105
    3  0.000  0.002  0.000  0.000  0.004  0.000  0.000  0.000  0.000  0.007
    4  0.000  0.002  0.000  0.000  0.004  0.000  0.000  0.000  0.000  0.007
    5  0.000  0.113  0.001  0.002  0.000  0.000  0.000  0.000  0.000  0.116
    6  0.001  0.034  0.011  0.000  0.000  0.000  0.000  0.000  0.000  0.046
    7  0.000  0.052  0.006  0.025  0.000  0.000  0.000  0.000  0.000  0.083
    8  0.000  0.113  0.001  0.002  0.000  0.000  0.000  0.000  0.000  0.116
    9  0.001  0.034  0.011  0.000  0.000  0.000  0.000  0.000  0.000  0.046
   10  0.000  0.052  0.006  0.025  0.000  0.000  0.000  0.000  0.000  0.083
tot    0.002  0.442  0.036  0.057  0.022  0.002  0.000  0.015  0.140  0.716

band    31 # energy   -3.27798781 # occ.  1.00000000

ion      s     py     pz     px    dxy    dyz    dz2    dxz  x2-y2    tot
    1  0.011  0.000  0.000  0.000  0.000  0.000  0.171  0.000  0.000  0.182
    2  0.011  0.000  0.000  0.000  0.000  0.000  0.171  0.000  0.000  0.182
    3  0.000  0.000  0.081  0.000  0.000  0.000  0.006  0.000  0.000  0.087
    4  0.000  0.000  0.081  0.000  0.000  0.000  0.006  0.000  0.000  0.087
    5  0.001  0.000  0.023  0.010  0.000  0.000  0.000  0.000  0.000  0.034
    6  0.001  0.008  0.023  0.003  0.000  0.000  0.000  0.000  0.000  0.034
    7  0.001  0.008  0.023  0.003  0.000  0.000  0.000  0.000  0.000  0.034
    8  0.001  0.000  0.023  0.010  0.000  0.000  0.000  0.000  0.000  0.034
    9  0.001  0.008  0.023  0.003  0.000  0.000  0.000  0.000  0.000  0.034