<?xml version="1.0" encoding="ISO-8859-1"?>
<modeling>
 <generator>
  <i name="program" type="string">vasp </i>
  <i name="version" type="string">5.4.4.18Apr17-6-g9f103f2a35  </i>
  <i name="subversion" type="string">(build May  1 2020 15:48:39) complex            parallel </i>
  <i name="platform" type="string">LinuxGNU </i>
  <i name="date" type="string">2020 06 17 </i>
  <i name="time" type="string">09:08:51 </i>
 </generator>
 <incar>
  <i type="int" name="ISTART">     1</i>
  <i type="string" name="PREC">accurate</i>
  <i type="string" name="ALGO"> Normal</i>
  <i type="int" name="ISPIN">     2</i>
  <i name="AMIN">      0.01000000</i>
  <i type="int" name="NELM">   400</i>
  <i type="int" name="IBRION">     2</i>
  <i name="EDIFF">      0.00010000</i>
  <i type="int" name="NSW">    99</i>
  <i type="int" name="ISIF">     3</i>
  <i name="ENCUT">    520.00000000</i>
  <v name="MAGMOM">      5.00000000      5.00000000      0.60000000      0.60000000      0.60000000      0.60000000      0.60000000      0.60000000      0.60000000      0.60000000</v>
  <i type="string" name="LREAL"> Auto</i>
  <i type="int" name="ISMEAR">    -5</i>
  <i name="SIGMA">      0.05000000</i>
  <i type="logical" name="LWAVE"> F  </i>
  <i type="int" name="LORBIT">    11</i>
  <v type="int" name="KPOINT_BSE">    -1     0     0     0</v>
  <i type="int" name="NELM">   400</i>
  <i type="string" name="GGA"> Bo</i>
  <i name="PARAM1">      0.18333333</i>
  <i name="PARAM2">      0.22000000</i>
  <i type="logical" name="LUSE_VDW"> T  </i>
  <i name="AGGAC">      0.00000000</i>
 </incar>
 <structure name="primitive_cell" >
  <crystal>
   <varray name="basis" >
    <v>       6.90777700      -0.00000000       0.00000000 </v>
    <v>       3.45388800       5.98231000       0.00000000 </v>
    <v>       0.00000000       0.00000000      23.44458800 </v>
   </varray>
   <i name="volume">    968.83501932 </i>
   <varray name="rec_basis" >
    <v>       0.14476437      -0.08357974       0.00000000 </v>
    <v>       0.00000000       0.16715951      -0.00000000 </v>
    <v>      -0.00000000       0.00000000       0.04265377 </v>
   </varray>
  </crystal>
  <varray name="positions" >
   <v>       0.33333300       0.33333300       0.49992500 </v>
   <v>       0.00042000       0.37322400      -0.42624800 </v>
   <v>      -0.37364300       0.00042000      -0.42624800 </v>
   <v>       0.37322400      -0.37364300      -0.42624800 </v>
   <v>       0.37364300      -0.00042000       0.42624800 </v>
   <v>      -0.37322400       0.37364300       0.42624800 </v>
   <v>      -0.00042000      -0.37322400       0.42624800 </v>
   <v>      -0.33333300      -0.33333300      -0.49992500 </v>
   <v>       0.00000000       0.00000000       0.44821600 </v>
   <v>       0.00000000       0.00000000      -0.44821600 </v>
  </varray>
 </structure>
 <varray name="primitive_index" >
  <v type="int" >        1 </v>
  <v type="int" >        6 </v>
  <v type="int" >        5 </v>
  <v type="int" >        7 </v>
  <v type="int" >        8 </v>
  <v type="int" >       10 </v>
  <v type="int" >        9 </v>
  <v type="int" >        2 </v>
  <v type="int" >        3 </v>
  <v type="int" >        4 </v>
 </varray>
 <kpoints>
  <generation param="Gamma">
   <v type="int" name="divisions">       5        5        1 </v>
   <v name="usershift">      0.00000000       0.00000000       0.00000000 </v>
   <v name="genvec1">      0.20000000       0.00000000       0.00000000 </v>
   <v name="genvec2">      0.00000000       0.20000000       0.00000000 </v>
   <v name="genvec3">      0.00000000       0.00000000       1.00000000 </v>
   <v name="shift">      0.00000000       0.00000000       0.00000000 </v>
  </generation>
  <varray name="kpointlist" >
   <v>       0.00000000       0.00000000       0.00000000 </v>
   <v>       0.20000000       0.00000000       0.00000000 </v>
   <v>       0.40000000       0.00000000       0.00000000 </v>
   <v>       0.40000000       0.20000000       0.00000000 </v>
   <v>      -0.40000000       0.20000000       0.00000000 </v>
  </varray>
  <varray name="weights" >
   <v>       0.04000000 </v>
   <v>       0.24000000 </v>
   <v>       0.24000000 </v>
   <v>       0.24000000 </v>
   <v>       0.24000000 </v>
  </varray>
  <varray name="tetrahedronlist"  type="int" >
   <v type="int" >        6        1        1        2        2 </v>
   <v type="int" >       12        1        2        2        2 </v>
   <v type="int" >       12        2        2        3        4 </v>
   <v type="int" >       12        2        2        2        4 </v>
   <v type="int" >       12        2        3        3        4 </v>
   <v type="int" >       12        2        3        4        4 </v>
   <v type="int" >        6        2        2        4        4 </v>
   <v type="int" >       12        3        3        3        5 </v>
   <v type="int" >       12        3        3        4        5 </v>
   <v type="int" >       12        3        4        4        5 </v>
   <v type="int" >        6        3        3        5        5 </v>
   <v type="int" >       12        3        4        5        5 </v>
   <v type="int" >        6        4        4        5        5 </v>
   <v type="int" >       12        4        5        5        5 </v>
   <v type="int" >        6        5        5        5        5 </v>
  </varray>
  <i name="volumeweight">      0.00666667 </i>
 </kpoints>
 <parameters>
  <separator name="general" >
   <i type="string" name="SYSTEM">unknown system</i>
   <i type="logical" name="LCOMPAT"> F  </i>
  </separator>
  <separator name="electronic" >
   <i type="string" name="PREC">accura</i>
   <i name="ENMAX">    520.00000000</i>
   <i name="ENAUG">    402.10800000</i>
   <i name="EDIFF">      0.00010000</i>
   <i type="int" name="IALGO">    38</i>
   <i type="int" name="IWAVPR">    11</i>
   <i type="int" name="NBANDS">    48</i>
   <i name="NELECT">     56.00000000</i>
   <i type="int" name="TURBO">     0</i>
   <i type="int" name="IRESTART">     0</i>
   <i type="int" name="NREBOOT">     0</i>
   <i type="int" name="NMIN">     0</i>
   <i name="EREF">      0.00000000</i>
   <separator name="electronic smearing" >
    <i type="int" name="ISMEAR">    -5</i>
    <i name="SIGMA">      0.05000000</i>
    <i name="KSPACING">      0.50000000</i>
    <i type="logical" name="KGAMMA"> T  </i>
   </separator>
   <separator name="electronic projectors" >
    <i type="logical" name="LREAL"> T  </i>
    <v name="ROPT">     -0.00025000     -0.00025000     -0.00025000</v>
    <i type="int" name="LMAXPAW">  -100</i>
    <i type="int" name="LMAXMIX">     2</i>
    <i type="logical" name="NLSPLINE"> F  </i>
   </separator>
   <separator name="electronic startup" >
    <i type="int" name="ISTART">     0</i>
    <i type="int" name="ICHARG">     2</i>
    <i type="int" name="INIWAV">     1</i>
   </separator>
   <separator name="electronic spin" >
    <i type="int" name="ISPIN">     2</i>
    <i type="logical" name="LNONCOLLINEAR"> F  </i>
    <v name="MAGMOM">      5.00000000      5.00000000      0.60000000      0.60000000      0.60000000      0.60000000      0.60000000      0.60000000      0.60000000      0.60000000</v>
    <i name="NUPDOWN">     -1.00000000</i>
    <i type="logical" name="LSORBIT"> F  </i>
    <v name="SAXIS">      0.00000000      0.00000000      1.00000000</v>
    <i type="logical" name="LSPIRAL"> F  </i>
    <v name="QSPIRAL">      0.00000000      0.00000000      0.00000000</v>
    <i type="logical" name="LZEROZ"> F  </i>
   </separator>
   <separator name="electronic exchange-correlation" >
    <i type="logical" name="LASPH"> F  </i>
    <i type="logical" name="LMETAGGA"> F  </i>
   </separator>
   <separator name="electronic convergence" >
    <i type="int" name="NELM">   400</i>
    <i type="int" name="NELMDL">     0</i>
    <i type="int" name="NELMIN">     2</i>
    <i name="ENINI">    520.00000000</i>
    <separator name="electronic convergence detail" >
     <i type="logical" name="LDIAG"> T  </i>
     <i type="logical" name="LSUBROT"> F  </i>
     <i name="WEIMIN">      0.00100000</i>
     <i name="EBREAK">      0.00000052</i>
     <i name="DEPER">      0.30000000</i>
     <i type="int" name="NRMM">     4</i>
     <i name="TIME">      0.40000000</i>
    </separator>
   </separator>
   <separator name="electronic mixer" >
    <i name="AMIX">      0.40000000</i>
    <i name="BMIX">      1.00000000</i>
    <i name="AMIN">      0.01000000</i>
    <i name="AMIX_MAG">      1.60000000</i>
    <i name="BMIX_MAG">      1.00000000</i>
    <separator name="electronic mixer details" >
     <i type="int" name="IMIX">     4</i>
     <i type="logical" name="MIXFIRST"> F  </i>
     <i type="int" name="MAXMIX">   -45</i>
     <i name="WC">    100.00000000</i>
     <i type="int" name="INIMIX">     1</i>
     <i type="int" name="MIXPRE">     1</i>
     <i type="int" name="MREMOVE">     5</i>
    </separator>
   </separator>
   <separator name="electronic dipolcorrection" >
    <i type="logical" name="LDIPOL"> F  </i>
    <i type="logical" name="LMONO"> F  </i>
    <i type="int" name="IDIPOL">     0</i>
    <i name="EPSILON">      1.00000000</i>
    <v name="DIPOL">   -100.00000000   -100.00000000   -100.00000000</v>
    <i name="EFIELD">      0.00000000</i>
   </separator>
  </separator>
  <separator name="grids" >
   <i type="int" name="NGX">    54</i>
   <i type="int" name="NGY">    54</i>
   <i type="int" name="NGZ">   180</i>
   <i type="int" name="NGXF">   108</i>
   <i type="int" name="NGYF">   108</i>
   <i type="int" name="NGZF">   360</i>
   <i type="logical" name="ADDGRID"> F  </i>
  </separator>
  <separator name="ionic" >
   <i type="int" name="NSW">    99</i>
   <i type="int" name="IBRION">     2</i>
   <i type="int" name="MDALGO">     0</i>
   <i type="int" name="ISIF">     3</i>
   <i name="PSTRESS">      0.00000000</i>
   <i name="EDIFFG">      0.00100000</i>
   <i type="int" name="NFREE">     1</i>
   <i name="POTIM">      0.50000000</i>
   <i name="SMASS">     -3.00000000</i>
   <i name="SCALEE">      1.00000000</i>
  </separator>
  <separator name="ionic md" >
   <i name="TEBEG">      0.00010000</i>
   <i name="TEEND">      0.00010000</i>
   <i type="int" name="NBLOCK">     1</i>
   <i type="int" name="KBLOCK">    99</i>
   <i type="int" name="NPACO">   256</i>
   <i name="APACO">     16.00000000</i>
  </separator>
  <separator name="symmetry" >
   <i type="int" name="ISYM">     2</i>
   <i name="SYMPREC">      0.00001000</i>
  </separator>
  <separator name="dos" >
   <i type="int" name="LORBIT">    11</i>
   <v name="RWIGS">     -1.00000000     -1.00000000     -1.00000000</v>
   <i type="int" name="NEDOS">   301</i>
   <i name="EMIN">     10.00000000</i>
   <i name="EMAX">    -10.00000000</i>
   <i name="EFERMI">      0.00000000</i>
  </separator>
  <separator name="writing" >
   <i type="int" name="NWRITE">     2</i>
   <i type="logical" name="LWAVE"> F  </i>
   <i type="logical" name="LDOWNSAMPLE"> F  </i>
   <i type="logical" name="LCHARG"> T  </i>
   <i type="logical" name="LPARD"> F  </i>
   <i type="logical" name="LVTOT"> F  </i>
   <i type="logical" name="LVHAR"> F  </i>
   <i type="logical" name="LELF"> F  </i>
   <i type="logical" name="LOPTICS"> F  </i>
   <v name="STM">      0.00000000      0.00000000      0.00000000      0.00000000      0.00000000      0.00000000      0.00000000</v>
  </separator>
  <separator name="performance" >
   <i type="int" name="NPAR">    16</i>
   <i type="int" name="NSIM">     4</i>
   <i type="int" name="NBLK">    -1</i>
   <i type="logical" name="LPLANE"> T  </i>
   <i type="logical" name="LSCALAPACK"> T  </i>
   <i type="logical" name="LSCAAWARE"> F  </i>
   <i type="logical" name="LSCALU"> F  </i>
   <i type="logical" name="LASYNC"> F  </i>
   <i type="logical" name="LORBITALREAL"> F  </i>
  </separator>
  <separator name="miscellaneous" >
   <i type="int" name="IDIOT">     3</i>
   <i type="int" name="ISPECIAL">     0</i>
   <i type="logical" name="LMUSIC"> F  </i>
   <v name="POMASS">     51.99600000     72.61000000     32.06600000</v>
   <v name="DARWINR">      0.00000000      0.00000000      0.00000000</v>
   <v name="DARWINV">      1.00000000      1.00000000      1.00000000</v>
   <i type="logical" name="LCORR"> T  </i>
  </separator>
  <i type="logical" name="GGA_COMPAT"> T  </i>
  <i type="logical" name="LBERRY"> F  </i>
  <i type="int" name="ICORELEVEL">     0</i>
  <i type="logical" name="LDAU"> F  </i>
  <i type="int" name="I_CONSTRAINED_M">     0</i>
  <separator name="electronic exchange-correlation" >
   <i type="string" name="GGA">BO</i>
   <i type="int" name="VOSKOWN">     0</i>
   <i type="logical" name="LHFCALC"> F  </i>
   <i type="string" name="PRECFOCK"></i>
   <i type="logical" name="LSYMGRAD"> F  </i>
   <i type="logical" name="LHFONE"> F  </i>
   <i type="logical" name="LRHFCALC"> F  </i>
   <i type="logical" name="LTHOMAS"> F  </i>
   <i type="logical" name="LMODELHF"> F  </i>
   <i name="ENCUT4O">     -1.00000000</i>
   <i type="int" name="EXXOEP">     0</i>
   <i type="int" name="FOURORBIT">     0</i>
   <i name="AEXX">      0.00000000</i>
   <i name="HFALPHA">      0.00000000</i>
   <i name="MCALPHA">      0.00000000</i>
   <i name="ALDAX">      1.00000000</i>
   <i name="AGGAX">      1.00000000</i>
   <i name="ALDAC">      1.00000000</i>
   <i name="AGGAC">      0.00000000</i>
   <i type="int" name="NKREDX">     1</i>
   <i type="int" name="NKREDY">     1</i>
   <i type="int" name="NKREDZ">     1</i>
   <i type="logical" name="SHIFTRED"> F  </i>
   <i type="logical" name="ODDONLY"> F  </i>
   <i type="logical" name="EVENONLY"> F  </i>
   <i type="int" name="LMAXFOCK">     0</i>
   <i type="int" name="NMAXFOCKAE">     0</i>
   <i type="logical" name="LFOCKAEDFT"> F  </i>
   <i name="HFSCREEN">      0.00000000</i>
   <i name="HFSCREENC">      0.00000000</i>
   <i type="int" name="NBANDSGWLOW">     0</i>
  </separator>
  <separator name="vdW DFT" >
   <i type="logical" name="LUSE_VDW"> T  </i>
   <i name="Zab_VDW">     -0.84910000</i>
   <i name="PARAM1">      0.18333333</i>
   <i name="PARAM2">      0.22000000</i>
   <i name="PARAM3">      0.00000000</i>
  </separator>
  <separator name="model GW" >
   <i type="int" name="MODEL_GW">     0</i>
   <i name="MODEL_EPS0">     58.13010116</i>
   <i name="MODEL_ALPHA">      1.00000000</i>
  </separator>
  <separator name="linear response parameters" >
   <i type="logical" name="LEPSILON"> F  </i>
   <i type="logical" name="LRPA"> F  </i>
   <i type="logical" name="LNABLA"> F  </i>
   <i type="logical" name="LVEL"> F  </i>
   <i type="int" name="KINTER">     0</i>
   <i name="CSHIFT">      0.10000000</i>
   <i name="OMEGAMAX">     -1.00000000</i>
   <i name="DEG_THRESHOLD">      0.00200000</i>
   <i name="RTIME">     -0.10000000</i>
   <i name="WPLASMAI">      0.00000000</i>
   <v name="DFIELD">      0.00000000      0.00000000      0.00000000</v>
   <v name="WPLASMA">      0.00000000      0.00000000      0.00000000      0.00000000      0.00000000      0.00000000      0.00000000      0.00000000      0.00000000</v>
  </separator>
  <separator name="orbital magnetization" >
   <i type="logical" name="NUCIND"> F  </i>
   <v name="MAGPOS">      0.00000000      0.00000000      0.00000000</v>
   <i type="logical" name="LNICSALL"> T  </i>
   <i type="logical" name="ORBITALMAG"> F  </i>
   <i type="logical" name="LMAGBLOCH"> F  </i>
   <i type="logical" name="LCHIMAG"> F  </i>
   <i type="logical" name="LGAUGE"> T  </i>
   <i type="int" name="MAGATOM">     0</i>
   <v name="MAGDIPOL">      0.00000000      0.00000000      0.00000000</v>
   <v name="AVECCONST">      0.00000000      0.00000000      0.00000000</v>
  </separator>
  <separator name="response functions" >
   <i type="logical" name="LADDER"> F  </i>
   <i type="logical" name="LRPAFORCE"> F  </i>
   <i type="logical" name="LFXC"> F  </i>
   <i type="logical" name="LHARTREE"> T  </i>
   <i type="int" name="IBSE">     0</i>
   <v type="int" name="KPOINT">    -1     0     0     0</v>
   <i type="logical" name="LTCTE"> F  </i>
   <i type="logical" name="LTETE"> F  </i>
   <i type="logical" name="LTRIPLET"> F  </i>
   <i type="logical" name="LFXCEPS"> F  </i>
   <i type="logical" name="LFXHEG"> F  </i>
   <i type="int" name="NATURALO">     2</i>
   <i type="logical" name="L2ORDER"> F  </i>
   <i type="logical" name="LMP2LT"> F  </i>
   <i type="logical" name="LUSEW"> F  </i>
   <i name="ENCUTGW">     -2.00000000</i>
   <i name="ENCUTGWSOFT">     -2.00000000</i>
   <i name="ENCUTLF">     -1.00000000</i>
   <i type="int" name="LMAXMP2">    -1</i>
   <i name="SCISSOR">      0.00000000</i>
   <i type="int" name="NOMEGA">     0</i>
   <i type="int" name="NOMEGAR">     0</i>
   <i type="int" name="NBANDSGW">    -1</i>
   <i type="int" name="NBANDSO">    -1</i>
   <i type="int" name="NBANDSV">    -1</i>
   <i type="int" name="NELM">   400</i>
   <i type="int" name="NELMHF">     1</i>
   <i type="int" name="DIM">     3</i>
   <i type="int" name="ANTIRES">     0</i>
   <i name="OMEGAMAX">    -30.00000000</i>
   <i name="OMEGAMIN">    -30.00000000</i>
   <i name="OMEGATL">   -200.00000000</i>
   <i type="int" name="OMEGAGRID">   140</i>
   <i name="CSHIFT">     -0.10000000</i>
   <i type="logical" name="SELFENERGY"> F  </i>
   <i type="logical" name="LSPECTRAL"> F  </i>
   <i type="logical" name="LSPECTRALGW"> F  </i>
   <i type="logical" name="LSINGLES"> F  </i>
   <i type="logical" name="LFERMIGW"> F  </i>
   <i type="logical" name="ODDONLYGW"> F  </i>
   <i type="logical" name="EVENONLYGW"> F  </i>
   <i type="int" name="NKREDLFX">     1</i>
   <i type="int" name="NKREDLFY">     1</i>
   <i type="int" name="NKREDLFZ">     1</i>
   <i type="int" name="MAXMEM">  2800</i>
   <i type="int" name="TELESCOPE">     0</i>
   <i type="int" name="TAUPAR">     1</i>
   <i type="int" name="OMEGAPAR">    -1</i>
   <i name="LAMBDA">      1.00000000</i>
  </separator>
  <separator name="External order field" >
   <i name="OFIELD_KAPPA">      0.00000000</i>
   <v name="OFIELD_K">      0.00000000      0.00000000      0.00000000</v>
   <i name="OFIELD_Q6_NEAR">      0.00000000</i>
   <i name="OFIELD_Q6_FAR">      0.00000000</i>
   <i name="OFIELD_A">      0.00000000</i>
  </separator>
 </parameters>
 <atominfo>
  <atoms>      10 </atoms>
  <types>       3 </types>
  <array name="atoms" >
   <dimension dim="1">ion</dimension>
   <field type="string">element</field>
   <field type="int">atomtype</field>
   <set>
    <rc><c>Cr</c><c>   1</c></rc>
    <rc><c>Cr</c><c>   1</c></rc>
    <rc><c>Ge</c><c>   2</c></rc>
    <rc><c>Ge</c><c>   2</c></rc>
    <rc><c>S </c><c>   3</c></rc>
    <rc><c>S </c><c>   3</c></rc>
    <rc><c>S </c><c>   3</c></rc>
    <rc><c>S </c><c>   3</c></rc>
    <rc><c>S </c><c>   3</c></rc>
    <rc><c>S </c><c>   3</c></rc>
   </set>
  </array>
  <array name="atomtypes" >
   <dimension dim="1">type</dimension>
   <field type="int">atomspertype</field>
   <field type="string">element</field>
   <field>mass</field>
   <field>valence</field>
   <field type="string">pseudopotential</field>
   <set>
    <rc><c>   2</c><c>Cr</c><c>     51.99600000</c><c>      6.00000000</c><c> PAW_PBE Cr 06Sep2000                   </c></rc>
    <rc><c>   2</c><c>Ge</c><c>     72.61000000</c><c>      4.00000000</c><c> PAW_PBE Ge 05Jan2001                   </c></rc>
    <rc><c>   6</c><c>S </c><c>     32.06600000</c><c>      6.00000000</c><c>  PAW_PBE S 17Jan2003                   </c></rc>
   </set>
  </array>
 </atominfo>
 <structure name="initialpos" >
  <crystal>
   <varray name="basis" >
    <v>       6.90777700      -0.00000000       0.00000000 </v>
    <v>       3.45388800       5.98231000       0.00000000 </v>
    <v>       0.00000000       0.00000000      23.44458800 </v>
   </varray>
   <i name="volume">    968.83501932 </i>
   <varray name="rec_basis" >
    <v>       0.14476437      -0.08357974       0.00000000 </v>
    <v>       0.00000000       0.16715951      -0.00000000 </v>
    <v>      -0.00000000       0.00000000       0.04265377 </v>
   </varray>
  </crystal>
  <varray name="positions" >
   <v>       0.33333300       0.33333300       0.49992500 </v>
   <v>       0.66666700       0.66666700       0.50007500 </v>
   <v>       0.00000000       0.00000000       0.44821600 </v>
   <v>       0.00000000       0.00000000       0.55178400 </v>
   <v>       0.62635700       0.00042000       0.57375200 </v>
   <v>       0.00042000       0.37322400       0.57375200 </v>
   <v>       0.37322400       0.62635700       0.57375200 </v>
   <v>       0.37364300       0.99958000       0.42624800 </v>
   <v>       0.99958000       0.62677600       0.42624800 </v>
   <v>       0.62677600       0.37364300       0.42624800 </v>
  </varray>
  <varray name="selective"  type="logical" >
   <v type="logical" >  F  F  F </v>
   <v type="logical" >  F  F  F </v>
   <v type="logical" >  F  F  F </v>
   <v type="logical" >  F  F  F </v>
   <v type="logical" >  T  T  T </v>
   <v type="logical" >  T  T  T </v>
   <v type="logical" >  T  T  T </v>
   <v type="logical" >  T  T  T </v>
   <v type="logical" >  T  T  T </v>
   <v type="logical" >  T  T  T </v>
  </varray>
  <nose>
   <v>      -3.00000000       0.00000000       0.00010000       0.00010000 </v>
  </nose>
 </structure>
 <calculation>
  <scstep>
   <time name="dav">   22.28   22.52</time>
   <time name="total">   74.89   75.66</time>
   <energy>
    <i name="alphaZ">     22.20798002 </i>
    <i name="ewald">   5985.89955237 </i>
    <i name="hartreedc">  -8125.49843055 </i>
    <i name="XCdc">     15.21379330 </i>
    <i name="pawpsdc">   1126.22877738 </i>
    <i name="pawaedc">  -1033.17360965 </i>
    <i name="eentropy">      0.00000000 </i>
    <i name="bandstr">    -22.16159330 </i>
    <i name="atom">   2435.08307139 </i>
    <i name="e_fr_energy">    403.79954095 </i>
    <i name="e_wo_entrp">    403.79954095 </i>
    <i name="e_0_energy">    403.79954095 </i>
   </energy>
  </scstep>
  <scstep>
   <time name="dav">   26.78   26.89</time>
   <time name="total">   26.78   26.89</time>
   <energy>
    <i name="e_fr_energy">     35.46616461 </i>
    <i name="e_wo_entrp">     35.46616461 </i>
    <i name="e_0_energy">     35.46616461 </i>
   </energy>
  </scstep>
  <scstep>
   <time name="dav">   30.78   30.88</time>
   <time name="total">   30.79   30.88</time>
   <energy>
    <i name="e_fr_energy">    -49.78558165 </i>
    <i name="e_wo_entrp">    -49.78558165 </i>
    <i name="e_0_energy">    -49.78558165 </i>
   </energy>
  </scstep>
  <scstep>
   <time name="dav">   30.07   30.14</time>
   <time name="total">   30.08   30.14</time>
   <energy>
    <i name="e_fr_energy">    -55.06701435 </i>
    <i name="e_wo_entrp">    -55.06701435 </i>
    <i name="e_0_energy">    -55.06701435 </i>
   </energy>
  </scstep>
  <scstep>
   <time name="dav">   28.61   28.70</time>
   <time name="total">   30.58   30.66</time>
   <energy>
    <i name="e_fr_energy">    -55.21930039 </i>
    <i name="e_wo_entrp">    -55.21930039 </i>
    <i name="e_0_energy">    -55.21930039 </i>
   </energy>
  </scstep>
  <scstep>
   <time name="dav">   29.53   29.65</time>
   <time name="total">   84.08   84.24</time>
   <energy>
    <i name="e_fr_energy">   -118.04344161 </i>
    <i name="e_wo_entrp">   -118.04344161 </i>
    <i name="e_0_energy">   -118.04344161 </i>
   </energy>
  </scstep>
  <scstep>
   <time name="dav">   25.19   25.42</time>
   <time name="total">   78.48   79.14</time>
   <energy>
    <i name="e_fr_energy">    -42.26354472 </i>
    <i name="e_wo_entrp">    -42.26354472 </i>
    <i name="e_0_energy">    -42.26354472 </i>
   </energy>
  </scstep>
  <scstep>
   <time name="dav">   33.10   33.20</time>
   <time name="total">   86.44   86.81</time>
   <energy>
    <i name="e_fr_energy">    -44.61286547 </i>
    <i name="e_wo_entrp">    -44.61286547 </i>
    <i name="e_0_energy">    -44.61286547 </i>
   </energy>
  </scstep>
  <scstep>
   <time name="dav">   33.20   33.32</time>
   <time name="total">   86.52   86.87</time>
   <energy>
    <i name="e_fr_energy">    -45.70455121 </i>
    <i name="e_wo_entrp">    -45.70455121 </i>
    <i name="e_0_energy">    -45.70455121 </i>
   </energy>
  </scstep>
  <scstep>
   <time name="dav">   33.67   33.88</time>
   <time name="total">   86.52   86.97</time>
   <energy>
    <i name="e_fr_energy">    -46.77638511 </i>
    <i name="e_wo_entrp">    -46.77638511 </i>
    <i name="e_0_energy">    -46.77638511 </i>
   </energy>
  </scstep>
  <scstep>
   <time name="dav">   32.59   32.85</time>
   <time name="total">   85.54   86.05</time>
   <energy>
    <i name="e_fr_energy">    -47.17481802 </i>
    <i name="e_wo_entrp">    -47.17481802 </i>
    <i name="e_0_energy">    -47.17481802 </i>
   </energy>
  </scstep>
  <scstep>
   <time name="dav">   28.16   28.41</time>
   <time name="total">   81.27   81.60</time>
   <energy>
    <i name="e_fr_energy">    -47.41524231 </i>
    <i name="e_wo_entrp">    -47.41524231 </i>
    <i name="e_0_energy">    -47.41524231 </i>
   </energy>
  </scstep>
  <scstep>
   <time name="dav">   28.26   28.43</time>
   <time name="total">   81.38   81.57</time>
   <energy>
    <i name="e_fr_energy">    -47.66757482 </i>
    <i name="e_wo_entrp">    -47.66757482 </i>
    <i name="e_0_energy">    -47.66757482 </i>
   </energy>
  </scstep>
  <scstep>
   <time name="dav">   30.61   30.81</time>
   <time name="total">   83.65   83.95</time>
   <energy>
    <i name="e_fr_energy">    -47.73724255 </i>
    <i name="e_wo_entrp">    -47.73724255 </i>
    <i name="e_0_energy">    -47.73724255 </i>
   </energy>
  </scstep>
  <scstep>
   <time name="dav">   30.25   30.45</time>
   <time name="total">   83.15   83.59</time>
   <energy>
    <i name="e_fr_energy">    -47.74041086 </i>
    <i name="e_wo_entrp">    -47.74041086 </i>
    <i name="e_0_energy">    -47.74041086 </i>
   </energy>
  </scstep>
  <scstep>
   <time name="dav">   25.62   25.77</time>
   <time name="total">   78.65   78.86</time>
   <energy>
    <i name="e_fr_energy">    -47.73973551 </i>
    <i name="e_wo_entrp">    -47.73973551 </i>
    <i name="e_0_energy">    -47.73973551 </i>
   </energy>
  </scstep>
  <scstep>
   <time name="dav">   23.28   23.44</time>
   <time name="total">   74.00   74.50</time>
   <energy>
    <i name="alphaZ">     22.20798002 </i>
    <i name="ewald">   5985.89955237 </i>
    <i name="hartreedc">  -8124.68760671 </i>
    <i name="XCdc">     15.74585051 </i>
    <i name="pawpsdc">   1128.17140510 </i>
    <i name="pawaedc">  -1035.41014855 </i>
    <i name="eentropy">      0.00000000 </i>
    <i name="bandstr">   -474.74993836 </i>
    <i name="atom">   2435.08307139 </i>
    <i name="e_fr_energy">    -47.73983424 </i>
    <i name="e_wo_entrp">    -47.73983424 </i>
    <i name="e_0_energy">    -47.73983424 </i>
   </energy>
  </scstep>
  <structure>
   <crystal>
    <varray name="basis" >
     <v>       6.90777700      -0.00000000       0.00000000 </v>
     <v>       3.45388800       5.98231000       0.00000000 </v>
     <v>       0.00000000       0.00000000      23.44458800 </v>
    </varray>
    <i name="volume">    968.83501932 </i>
    <varray name="rec_basis" >
     <v>       0.14476437      -0.08357974       0.00000000 </v>
     <v>       0.00000000       0.16715951      -0.00000000 </v>
     <v>      -0.00000000       0.00000000       0.04265377 </v>
    </varray>
   </crystal>
   <varray name="positions" >
    <v>       0.33333300       0.33333300       0.49992500 </v>
    <v>       0.66666700       0.66666700       0.50007500 </v>
    <v>       0.00000000       0.00000000       0.44821600 </v>
    <v>       0.00000000       0.00000000       0.55178400 </v>
    <v>       0.62635700       0.00042000       0.57375200 </v>
    <v>       0.00042000       0.37322400       0.57375200 </v>
    <v>       0.37322400       0.62635700       0.57375200 </v>
    <v>       0.37364300       0.99958000       0.42624800 </v>
    <v>       0.99958000       0.62677600       0.42624800 </v>
    <v>       0.62677600       0.37364300       0.42624800 </v>
   </varray>
  </structure>
  <varray name="forces" >
   <v>       0.00000000       0.00000000       0.00907802 </v>
   <v>       0.00000000      -0.00000000      -0.00907802 </v>
   <v>       0.00000000       0.00000000      -1.03974523 </v>
   <v>       0.00000000       0.00000000       1.03974523 </v>
   <v>       0.94208947      -0.00453043      -1.60997131 </v>
   <v>      -0.47496814      -0.81360815      -1.60997131 </v>
   <v>      -0.46712133       0.81813858      -1.60997131 </v>
   <v>      -0.94208947       0.00453043       1.60997131 </v>
   <v>       0.47496814       0.81360815       1.60997131 </v>
   <v>       0.46712133      -0.81813858       1.60997131 </v>
  </varray>
  <varray name="stress" >
   <v>     -44.73163711       0.00000316      -0.00000000 </v>
   <v>       0.00000432     -44.73163164       0.00000000 </v>
   <v>       0.00000000      -0.00000000     -23.66836215 </v>
  </varray>
  <energy>
   <i name="e_fr_energy">    -47.73983424 </i>
   <i name="e_wo_entrp">    -47.73983424 </i>
   <i name="e_0_energy">      0.00000000 </i>
  </energy>
  <time name="totalsc"> 1330.26 1336.76</time>
 </calculation>
 <calculation>
  <scstep>
   <time name="dav">   29.42   29.85</time>
   <time name="total">   82.85   83.69</time>
   <energy>
    <i name="alphaZ">     31.55252184 </i>
    <i name="ewald">   7800.70293587 </i>
    <i name="hartreedc"> -10154.08210721 </i>
    <i name="XCdc">     31.12662304 </i>
    <i name="pawpsdc">   1128.21398769 </i>
    <i name="pawaedc">  -1035.45926775 </i>
    <i name="eentropy">      0.00000000 </i>
    <i name="bandstr">   -310.91508093 </i>
    <i name="atom">   2435.08307139 </i>
    <i name="e_fr_energy">    -73.77731607 </i>
    <i name="e_wo_entrp">    -73.77731607 </i>
    <i name="e_0_energy">    -73.77731607 </i>
   </energy>
  </scstep>
  <scstep>
   <time name="dav">   31.57   32.15</time>
   <time name="total">   85.34   86.02</time>
   <energy>
    <i name="e_fr_energy">    -57.90176250 </i>
    <i name="e_wo_entrp">    -57.90176250 </i>
    <i name="e_0_energy">    -57.90176250 </i>
   </energy>
  </scstep>
  <scstep>
   <time name="dav">   33.01   33.15</time>
   <time name="total">   86.88   87.23</time>
   <energy>
    <i name="e_fr_energy">    -56.51185629 </i>
    <i name="e_wo_entrp">    -56.51185629 </i>
    <i name="e_0_energy">    -56.51185629 </i>
   </energy>
  </scstep>
  <scstep>
   <time name="dav">   32.37   32.53</time>
   <time name="total">   85.99   86.47</time>
   <energy>
    <i name="e_fr_energy">    -53.11994360 </i>
    <i name="e_wo_entrp">    -53.11994360 </i>
    <i name="e_0_energy">    -53.11994360 </i>
   </energy>
  </scstep>
  <scstep>
   <time name="dav">   31.66   31.72</time>
   <time name="total">   85.37   85.91</time>
   <energy>
    <i name="e_fr_energy">    -53.07551953 </i>
    <i name="e_wo_entrp">    -53.07551953 </i>
    <i name="e_0_energy">    -53.07551953 </i>
   </energy>
  </scstep>
  <scstep>
   <time name="dav">   31.82   32.41</time>
   <time name="total">   85.58   86.51</time>
   <energy>
    <i name="e_fr_energy">    -53.06941292 </i>
    <i name="e_wo_entrp">    -53.06941292 </i>
    <i name="e_0_energy">    -53.06941292 </i>
   </energy>
  </scstep>
  <scstep>
   <time name="dav">   27.99   28.11</time>
   <time name="total">   82.00   82.29</time>
   <energy>
    <i name="e_fr_energy">    -53.06999913 </i>
    <i name="e_wo_entrp">    -53.06999913 </i>
    <i name="e_0_energy">    -53.06999913 </i>
   </energy>
  </scstep>
  <scstep>
   <time name="dav">   26.10   26.13</time>
   <time name="total">   80.20   80.32</time>
   <energy>
    <i name="e_fr_energy">    -53.07036545 </i>
    <i name="e_wo_entrp">    -53.07036545 </i>
    <i name="e_0_energy">    -53.07036545 </i>
   </energy>
  </scstep>
  <scstep>
   <time name="dav">   30.34   30.46</time>
   <time name="total">   84.16   84.54</time>
   <energy>
    <i name="e_fr_energy">    -53.07162391 </i>
    <i name="e_wo_entrp">    -53.07162391 </i>
    <i name="e_0_energy">    -53.07162391 </i>
   </energy>
  </scstep>
  <scstep>
   <time name="dav">   26.59   26.87</time>
   <time name="total">   80.15   80.87</time>
   <energy>
    <i name="e_fr_energy">    -53.07165037 </i>
    <i name="e_wo_entrp">    -53.07165037 </i>
    <i name="e_0_energy">    -53.07165037 </i>
   </energy>
  </scstep>
  <scstep>
   <time name="dav">   26.28   26.41</time>
   <time name="total">   80.23   80.50</time>
   <energy>
    <i name="e_fr_energy">    -53.07138721 </i>
    <i name="e_wo_entrp">    -53.07138721 </i>
    <i name="e_0_energy">    -53.07138721 </i>
   </energy>
  </scstep>
  <scstep>
   <time name="dav">   27.09   27.14</time>
   <time name="total">   81.04   81.27</time>
   <energy>
    <i name="e_fr_energy">    -53.07054247 </i>
    <i name="e_wo_entrp">    -53.07054247 </i>
    <i name="e_0_energy">    -53.07054247 </i>
   </energy>
  </scstep>
  <scstep>
   <time name="dav">   26.36   26.41</time>
   <time name="total">   80.07   80.48</time>
   <energy>
    <i name="e_fr_energy">    -53.06833776 </i>
    <i name="e_wo_entrp">    -53.06833776 </i>
    <i name="e_0_energy">    -53.06833776 </i>
   </energy>
  </scstep>
  <scstep>
   <time name="dav">   22.51   22.55</time>
   <time name="total">   76.14   76.66</time>
   <energy>
    <i name="e_fr_energy">    -53.06766025 </i>
    <i name="e_wo_entrp">    -53.06766025 </i>
    <i name="e_0_energy">    -53.06766025 </i>
   </energy>
  </scstep>
  <scstep>
   <time name="dav">   21.59   21.81</time>
   <time name="total">   75.29   75.87</time>
   <energy>
    <i name="e_fr_energy">    -53.06655579 </i>
    <i name="e_wo_entrp">    -53.06655579 </i>
    <i name="e_0_energy">    -53.06655579 </i>
   </energy>
  </scstep>
  <scstep>
   <time name="dav">   19.56   19.82</time>
   <time name="total">   73.04   73.93</time>
   <energy>
    <i name="e_fr_energy">    -53.06575982 </i>
    <i name="e_wo_entrp">    -53.06575982 </i>
    <i name="e_0_energy">    -53.06575982 </i>
   </energy>
  </scstep>
  <scstep>
   <time name="dav">   23.98   24.25</time>
   <time name="total">   77.79   78.23</time>
   <energy>
    <i name="e_fr_energy">    -53.06515724 </i>
    <i name="e_wo_entrp">    -53.06515724 </i>
    <i name="e_0_energy">    -53.06515724 </i>
   </energy>
  </scstep>
  <scstep>
   <time name="dav">   27.41   27.43</time>
   <time name="total">   81.34   81.49</time>
   <energy>
    <i name="e_fr_energy">    -53.06494671 </i>
    <i name="e_wo_entrp">    -53.06494671 </i>
    <i name="e_0_energy">    -53.06494671 </i>
   </energy>
  </scstep>
  <scstep>
   <time name="dav">   21.26   21.52</time>
   <time name="total">   75.13   75.62</time>
   <energy>
    <i name="e_fr_energy">    -53.06514298 </i>
    <i name="e_wo_entrp">    -53.06514298 </i>
    <i name="e_0_energy">    -53.06514298 </i>
   </energy>
  </scstep>
  <scstep>
   <time name="dav">   20.39   20.55</time>
   <time name="total">   74.36   74.79</time>
   <energy>
    <i name="e_fr_energy">    -53.06548469 </i>
    <i name="e_wo_entrp">    -53.06548469 </i>
    <i name="e_0_energy">    -53.06548469 </i>
   </energy>
  </scstep>
  <scstep>
   <time name="dav">   20.68   20.70</time>
   <time name="total">   74.69   74.94</time>
   <energy>
    <i name="e_fr_energy">    -53.06568912 </i>
    <i name="e_wo_entrp">    -53.06568912 </i>
    <i name="e_0_energy">    -53.06568912 </i>
   </energy>
  </scstep>
  <scstep>
   <time name="dav">   21.03   21.11</time>
   <time name="total">   72.96   73.32</time>
   <energy>
    <i name="alphaZ">     31.55252184 </i>
    <i name="ewald">   7800.70293587 </i>
    <i name="hartreedc">  -9974.08511237 </i>
    <i name="XCdc">     21.85314767 </i>
    <i name="pawpsdc">   1260.93555617 </i>
    <i name="pawaedc">  -1170.25783258 </i>
    <i name="eentropy">      0.00000000 </i>
    <i name="bandstr">   -458.85006385 </i>
    <i name="atom">   2435.08307139 </i>
    <i name="e_fr_energy">    -53.06577588 </i>
    <i name="e_wo_entrp">    -53.06577588 </i>
    <i name="e_0_energy">    -53.06577588 </i>
   </energy>
  </scstep>
  <structure>
   <crystal>
    <varray name="basis" >
     <v>       6.00636457       0.00000006      -0.00000000 </v>
     <v>       3.00318193       5.20166411      -0.00000000 </v>
     <v>       0.00000000      -0.00000000      21.82583253 </v>
    </varray>
    <i name="volume">    681.90646892 </i>
    <varray name="rec_basis" >
     <v>       0.16649006      -0.09612307      -0.00000000 </v>
     <v>      -0.00000000       0.19224617       0.00000000 </v>
     <v>       0.00000000      -0.00000000       0.04581727 </v>
    </varray>
   </crystal>
   <varray name="positions" >
    <v>       0.33333300       0.33333300       0.49992500 </v>
    <v>       0.66666700       0.66666700       0.50007500 </v>
    <v>       0.00000000       0.00000000       0.44821600 </v>
    <v>       0.00000000       0.00000000       0.55178400 </v>
    <v>       0.63295465       0.00038347       0.57043911 </v>
    <v>       0.00038347       0.36666289       0.57043911 </v>
    <v>       0.36666289       0.63295465       0.57043911 </v>
    <v>       0.36704535       0.99961653       0.42956089 </v>
    <v>       0.99961653       0.63333711       0.42956089 </v>
    <v>       0.63333711       0.36704535       0.42956089 </v>
   </varray>
  </structure>
  <varray name="forces" >
   <v>       0.00000000      -0.00000000       0.00058932 </v>
   <v>       0.00000000      -0.00000000      -0.00058932 </v>
   <v>       0.00000000      -0.00000000      -1.01198350 </v>
   <v>       0.00000000      -0.00000000       1.01198350 </v>
   <v>      -0.43760071      -0.00874551       0.07381006 </v>
   <v>       0.21122650       0.38334607       0.07381006 </v>
   <v>       0.22637421      -0.37460056       0.07381006 </v>
   <v>       0.43760071       0.00874551      -0.07381006 </v>
   <v>      -0.21122650      -0.38334607      -0.07381006 </v>
   <v>      -0.22637421       0.37460056      -0.07381006 </v>
  </varray>
  <varray name="stress" >
   <v>       7.99070552      -0.00000096       0.00000000 </v>
   <v>       0.00000003       7.99070484      -0.00000000 </v>
   <v>       0.00000000      -0.00000000       6.92960404 </v>
  </varray>
  <energy>
   <i name="e_fr_energy">    -53.06577588 </i>
   <i name="e_wo_entrp">    -53.06577588 </i>
   <i name="e_0_energy">      0.00000000 </i>
  </energy>
  <time name="totalsc"> 1896.10 1907.39</time>
 </calculation>
 <calculation>
  <scstep>
   <time name="dav">   30.50   30.64</time>
   <time name="total">   84.44   84.71</time>
   <energy>
    <i name="alphaZ">     30.76037598 </i>
    <i name="ewald">   7650.96026796 </i>
    <i name="hartreedc">  -9810.42373994 </i>
    <i name="XCdc">     20.76731184 </i>
    <i name="pawpsdc">   1260.94433628 </i>
    <i name="pawaedc">  -1170.26648039 </i>
    <i name="eentropy">      0.00000000 </i>
    <i name="bandstr">   -471.03684194 </i>
    <i name="atom">   2435.08307139 </i>
    <i name="e_fr_energy">    -53.21169882 </i>
    <i name="e_wo_entrp">    -53.21169882 </i>
    <i name="e_0_energy">    -53.21169882 </i>
   </energy>
  </scstep>
  <scstep>
   <time name="dav">   30.12   30.30</time>
   <time name="total">   84.03   84.34</time>
   <energy>
    <i name="e_fr_energy">    -53.13235493 </i>
    <i name="e_wo_entrp">    -53.13235493 </i>
    <i name="e_0_energy">    -53.13235493 </i>
   </energy>
  </scstep>
  <scstep>
   <time name="dav">   31.50   31.65</time>
   <time name="total">   85.44   85.72</time>
   <energy>
    <i name="e_fr_energy">    -53.12136490 </i>
    <i name="e_wo_entrp">    -53.12136490 </i>
    <i name="e_0_energy">    -53.12136490 </i>
   </energy>
  </scstep>
  <scstep>
   <time name="dav">   29.87   30.23</time>
   <time name="total">   83.39   84.28</time>
   <energy>
    <i name="e_fr_energy">    -53.11237739 </i>
    <i name="e_wo_entrp">    -53.11237739 </i>
    <i name="e_0_energy">    -53.11237739 </i>
   </energy>
  </scstep>
  <scstep>
   <time name="dav">   29.76   29.94</time>
   <time name="total">   83.52   83.91</time>
   <energy>
    <i name="e_fr_energy">    -53.11124260 </i>
    <i name="e_wo_entrp">    -53.11124260 </i>
    <i name="e_0_energy">    -53.11124260 </i>
   </energy>
  </scstep>
  <scstep>
   <time name="dav">   24.38   24.68</time>
   <time name="total">   78.25   78.79</time>
   <energy>
    <i name="e_fr_energy">    -53.11101494 </i>
    <i name="e_wo_entrp">    -53.11101494 </i>
    <i name="e_0_energy">    -53.11101494 </i>
   </energy>
  </scstep>
  <scstep>
   <time name="dav">   20.27   20.36</time>
   <time name="total">   72.22   72.41</time>
   <energy>
    <i name="alphaZ">     30.76037598 </i>
    <i name="ewald">   7650.96026796 </i>
    <i name="hartreedc">  -9820.30943348 </i>
    <i name="XCdc">     21.29905060 </i>
    <i name="pawpsdc">   1246.98664765 </i>
    <i name="pawaedc">  -1156.06930407 </i>
    <i name="eentropy">      0.00000000 </i>
    <i name="bandstr">   -461.82167637 </i>
    <i name="atom">   2435.08307139 </i>
    <i name="e_fr_energy">    -53.11100035 </i>
    <i name="e_wo_entrp">    -53.11100035 </i>
    <i name="e_0_energy">    -53.11100035 </i>
   </energy>
  </scstep>
  <structure>
   <crystal>
    <varray name="basis" >
     <v>       6.06787582       0.00000006      -0.00000000 </v>
     <v>       3.03393754       5.25493441      -0.00000000 </v>
     <v>       0.00000000      -0.00000000      21.93629436 </v>
    </varray>
    <i name="volume">    699.46702747 </i>
    <varray name="rec_basis" >
     <v>       0.16480232      -0.09514866      -0.00000000 </v>
     <v>      -0.00000000       0.19029733       0.00000000 </v>
     <v>       0.00000000      -0.00000000       0.04558655 </v>
    </varray>
   </crystal>
   <varray name="positions" >
    <v>       0.33333300       0.33333300       0.49992500 </v>
    <v>       0.66666700       0.66666700       0.50007500 </v>
    <v>       0.00000000       0.00000000       0.44821600 </v>
    <v>       0.00000000       0.00000000       0.55178400 </v>
    <v>       0.63243687       0.00038633       0.57068195 </v>
    <v>       0.00038633       0.36717780       0.57068195 </v>
    <v>       0.36717780       0.63243687       0.57068195 </v>
    <v>       0.36756313       0.99961367       0.42931805 </v>
    <v>       0.99961367       0.63282220       0.42931805 </v>
    <v>       0.63282220       0.36756313       0.42931805 </v>
   </varray>
  </structure>
  <varray name="forces" >
   <v>      -0.00000000      -0.00000000       0.00091939 </v>
   <v>      -0.00000000       0.00000000      -0.00091939 </v>
   <v>      -0.00000000       0.00000000      -1.00838100 </v>
   <v>      -0.00000000      -0.00000000       1.00838100 </v>
   <v>      -0.23257419      -0.00796638      -0.13737430 </v>
   <v>       0.10938799       0.20539834      -0.13737430 </v>
   <v>       0.12318619      -0.19743196      -0.13737430 </v>
   <v>       0.23257419       0.00796638       0.13737430 </v>
   <v>      -0.10938799      -0.20539834       0.13737430 </v>
   <v>      -0.12318619       0.19743196       0.13737430 </v>
  </varray>
  <varray name="stress" >
   <v>      -0.84820441      -0.00000087       0.00000000 </v>
   <v>       0.00000097      -0.84820433       0.00000000 </v>
   <v>       0.00000000      -0.00000000       2.42299602 </v>
  </varray>
  <energy>
   <i name="e_fr_energy">    -53.11100035 </i>
   <i name="e_wo_entrp">    -53.11100035 </i>
   <i name="e_0_energy">      0.00000000 </i>
  </energy>
  <time name="totalsc">  707.01  710.49</time>
 </calculation>
 <calculation>
  <scstep>
   <time name="dav">   23.12   23.29</time>
   <time name="total">   76.86   77.25</time>
   <energy>
    <i name="alphaZ">     30.71849176 </i>
    <i name="ewald">   7757.50843030 </i>
    <i name="hartreedc">  -9920.88767622 </i>
    <i name="XCdc">     21.26179032 </i>
    <i name="pawpsdc">   1246.32047264 </i>
    <i name="pawaedc">  -1155.38388427 </i>
    <i name="eentropy">      0.00000000 </i>
    <i name="bandstr">   -467.75393356 </i>
    <i name="atom">   2435.08307139 </i>
    <i name="e_fr_energy">    -53.13323765 </i>
    <i name="e_wo_entrp">    -53.13323765 </i>
    <i name="e_0_energy">    -53.13323765 </i>
   </energy>
  </scstep>
  <scstep>
   <time name="dav">   29.84   30.23</time>
   <time name="total">   83.35   84.19</time>
   <energy>
    <i name="e_fr_energy">    -53.13916992 </i>
    <i name="e_wo_entrp">    -53.13916992 </i>
    <i name="e_0_energy">    -53.13916992 </i>
   </energy>
  </scstep>
  <scstep>
   <time name="dav">   30.03   30.55</time>
   <time name="total">   83.45   84.51</time>
   <energy>
    <i name="e_fr_energy">    -53.13563145 </i>
    <i name="e_wo_entrp">    -53.13563145 </i>
    <i name="e_0_energy">    -53.13563145 </i>
   </energy>
  </scstep>
  <scstep>
   <time name="dav">   31.17   31.57</time>
   <time name="total">   84.64   85.57</time>
   <energy>
    <i name="e_fr_energy">    -53.13418524 </i>
    <i name="e_wo_entrp">    -53.13418524 </i>
    <i name="e_0_energy">    -53.13418524 </i>
   </energy>
  </scstep>
  <scstep>
   <time name="dav">   24.26   24.55</time>
   <time name="total">   78.02   78.58</time>
   <energy>
    <i name="e_fr_energy">    -53.13380517 </i>
    <i name="e_wo_entrp">    -53.13380517 </i>
    <i name="e_0_energy">    -53.13380517 </i>
   </energy>
  </scstep>
  <scstep>
   <time name="dav">   18.19   18.22</time>
   <time name="total">   70.15   70.34</time>
   <energy>
    <i name="alphaZ">     30.71849176 </i>
    <i name="ewald">   7757.50843030 </i>
    <i name="hartreedc">  -9924.44996928 </i>
    <i name="XCdc">     21.27892852 </i>
    <i name="pawpsdc">   1247.39858182 </i>
    <i name="pawaedc">  -1156.46922178 </i>
    <i name="eentropy">      0.00000000 </i>
    <i name="bandstr">   -464.20203082 </i>
    <i name="atom">   2435.08307139 </i>
    <i name="e_fr_energy">    -53.13371809 </i>
    <i name="e_wo_entrp">    -53.13371809 </i>
    <i name="e_0_energy">    -53.13371809 </i>
   </energy>
  </scstep>
  <structure>
   <crystal>
    <varray name="basis" >
     <v>       6.05686940       0.00000005      -0.00000000 </v>
     <v>       3.02843434       5.24540256       0.00000000 </v>
     <v>      -0.00000000      -0.00000000      22.04610982 </v>
    </varray>
    <i name="volume">    700.42074082 </i>
    <varray name="rec_basis" >
     <v>       0.16510179      -0.09532156      -0.00000000 </v>
     <v>      -0.00000000       0.19064314       0.00000000 </v>
     <v>       0.00000000      -0.00000000       0.04535948 </v>
    </varray>
   </crystal>
   <varray name="positions" >
    <v>       0.33333300       0.33333300       0.49992500 </v>
    <v>       0.66666700       0.66666700       0.50007500 </v>
    <v>       0.00000000       0.00000000       0.44821600 </v>
    <v>       0.00000000       0.00000000       0.55178400 </v>
    <v>       0.63065207       0.00031418       0.57038255 </v>
    <v>       0.00031418       0.36903475       0.57038255 </v>
    <v>       0.36903475       0.63065207       0.57038255 </v>
    <v>       0.36934793       0.99968582       0.42961745 </v>
    <v>       0.99968582       0.63096525       0.42961745 </v>
    <v>       0.63096525       0.36934793       0.42961745 </v>
   </varray>
  </structure>
  <varray name="forces" >
   <v>      -0.00000000       0.00000000       0.00303315 </v>
   <v>      -0.00000000       0.00000000      -0.00303315 </v>
   <v>      -0.00000000       0.00000000      -0.88616724 </v>
   <v>      -0.00000000       0.00000000       0.88616724 </v>
   <v>      -0.12425434      -0.00588289      -0.13085070 </v>
   <v>       0.05703243       0.11054885      -0.13085070 </v>
   <v>       0.06722191      -0.10466597      -0.13085070 </v>
   <v>       0.12425434       0.00588289       0.13085070 </v>
   <v>      -0.05703243      -0.11054885       0.13085070 </v>
   <v>      -0.06722191       0.10466597       0.13085070 </v>
  </varray>
  <varray name="stress" >
   <v>      -0.33954321      -0.00000047       0.00000000 </v>
   <v>       0.00000051      -0.33954318      -0.00000000 </v>
   <v>       0.00000000      -0.00000000       2.71070092 </v>
  </varray>
  <energy>
   <i name="e_fr_energy">    -53.13371809 </i>
   <i name="e_wo_entrp">    -53.13371809 </i>
   <i name="e_0_energy">      0.00000000 </i>
  </energy>
  <time name="totalsc">  612.09  616.62</time>
 </calculation>
 <calculation>
  <scstep>
   <time name="dav">   22.80   22.98</time>
   <time name="total">   76.46   76.94</time>
   <energy>
    <i name="alphaZ">     30.61388491 </i>
    <i name="ewald">   8040.16405192 </i>
    <i name="hartreedc"> -10191.46174044 </i>
    <i name="XCdc">     21.18659149 </i>
    <i name="pawpsdc">   1247.27560633 </i>
    <i name="pawaedc">  -1156.34597092 </i>
    <i name="eentropy">      0.00000000 </i>
    <i name="bandstr">   -479.66482448 </i>
    <i name="atom">   2435.08307139 </i>
    <i name="e_fr_energy">    -53.14932980 </i>
    <i name="e_wo_entrp">    -53.14932980 </i>
    <i name="e_0_energy">    -53.14932980 </i>
   </energy>
  </scstep>
  <scstep>
   <time name="dav">   29.96   30.22</time>
   <time name="total">   83.80   84.29</time>
   <energy>
    <i name="e_fr_energy">    -53.19283549 </i>
    <i name="e_wo_entrp">    -53.19283549 </i>
    <i name="e_0_energy">    -53.19283549 </i>
   </energy>
  </scstep>
  <scstep>
   <time name="dav">   29.82   30.19</time>
   <time name="total">   83.57   84.13</time>
   <energy>
    <i name="e_fr_energy">    -53.16910516 </i>
    <i name="e_wo_entrp">    -53.16910516 </i>
    <i name="e_0_energy">    -53.16910516 </i>
   </energy>
  </scstep>
  <scstep>
   <time name="dav">   28.61   29.23</time>
   <time name="total">   81.86   83.34</time>
   <energy>
    <i name="e_fr_energy">    -53.15981658 </i>
    <i name="e_wo_entrp">    -53.15981658 </i>
    <i name="e_0_energy">    -53.15981658 </i>
   </energy>
  </scstep>
  <scstep>
   <time name="dav">   26.14   26.33</time>
   <time name="total">   79.90   80.36</time>
   <energy>
    <i name="e_fr_energy">    -53.15669352 </i>
    <i name="e_wo_entrp">    -53.15669352 </i>
    <i name="e_0_energy">    -53.15669352 </i>
   </energy>
  </scstep>
  <scstep>
   <time name="dav">   29.87   29.95</time>
   <time name="total">   83.61   83.95</time>
   <energy>
    <i name="e_fr_energy">    -53.15599687 </i>
    <i name="e_wo_entrp">    -53.15599687 </i>
    <i name="e_0_energy">    -53.15599687 </i>
   </energy>
  </scstep>
  <scstep>
   <time name="dav">   29.23   29.33</time>
   <time name="total">   83.24   83.56</time>
   <energy>
    <i name="e_fr_energy">    -53.15502395 </i>
    <i name="e_wo_entrp">    -53.15502395 </i>
    <i name="e_0_energy">    -53.15502395 </i>
   </energy>
  </scstep>
  <scstep>
   <time name="dav">   22.27   22.41</time>
   <time name="total">   74.38   74.67</time>
   <energy>
    <i name="alphaZ">     30.61388491 </i>
    <i name="ewald">   8040.16405192 </i>
    <i name="hartreedc"> -10203.20236888 </i>
    <i name="XCdc">     21.25684430 </i>
    <i name="pawpsdc">   1249.90053886 </i>
    <i name="pawaedc">  -1158.98210352 </i>
    <i name="eentropy">      0.00000000 </i>
    <i name="bandstr">   -467.98898581 </i>
    <i name="atom">   2435.08307139 </i>
    <i name="e_fr_energy">    -53.15506682 </i>
    <i name="e_wo_entrp">    -53.15506682 </i>
    <i name="e_0_energy">    -53.15506682 </i>
   </energy>
  </scstep>
  <structure>
   <crystal>
    <varray name="basis" >
     <v>       6.02812244       0.00000002       0.00000000 </v>
     <v>       3.01406089       5.22050695       0.00000000 </v>
     <v>      -0.00000000      -0.00000000      22.33292969 </v>
    </varray>
    <i name="volume">    702.81406011 </i>
    <varray name="rec_basis" >
     <v>       0.16588913      -0.09577613      -0.00000000 </v>
     <v>      -0.00000000       0.19155228       0.00000000 </v>
     <v>      -0.00000000      -0.00000000       0.04477693 </v>
    </varray>
   </crystal>
   <varray name="positions" >
    <v>       0.33333300       0.33333300       0.49992500 </v>
    <v>       0.66666700       0.66666700       0.50007500 </v>
    <v>       0.00000000       0.00000000       0.44821600 </v>
    <v>       0.00000000       0.00000000       0.55178400 </v>
    <v>       0.62598201       0.00012538       0.56960446 </v>
    <v>       0.00012538       0.37389360       0.56960446 </v>
    <v>       0.37389360       0.62598201       0.56960446 </v>
    <v>       0.37401799       0.99987462       0.43039554 </v>
    <v>       0.99987462       0.62610640       0.43039554 </v>
    <v>       0.62610640       0.37401799       0.43039554 </v>
   </varray>
  </structure>
  <varray name="forces" >
   <v>      -0.00000000       0.00000000       0.00928605 </v>
   <v>      -0.00000000      -0.00000000      -0.00928605 </v>
   <v>      -0.00000000       0.00000000      -0.59177336 </v>
   <v>      -0.00000000      -0.00000000       0.59177336 </v>
   <v>       0.12639547      -0.00065370      -0.11225058 </v>
   <v>      -0.06376385      -0.10913483      -0.11225058 </v>
   <v>      -0.06263162       0.10978853      -0.11225058 </v>
   <v>      -0.12639547       0.00065370       0.11225058 </v>
   <v>       0.06376385       0.10913483       0.11225058 </v>
   <v>       0.06263162      -0.10978853       0.11225058 </v>
  </varray>
  <varray name="stress" >
   <v>       0.41924368      -0.00000006      -0.00000000 </v>
   <v>       0.00000001       0.41924364      -0.00000000 </v>
   <v>       0.00000000      -0.00000000       1.80398779 </v>
  </varray>
  <energy>
   <i name="e_fr_energy">    -53.15506682 </i>
   <i name="e_wo_entrp">    -53.15506682 </i>
   <i name="e_0_energy">      0.00000000 </i>
  </energy>
  <time name="totalsc">  782.39  787.32</time>
 </calculation>
 <calculation>
  <scstep>
   <time name="dav">   28.37   28.41</time>
   <time name="total">   82.31   82.43</time>
   <energy>
    <i name="alphaZ">     30.33107377 </i>
    <i name="ewald">   8175.47525298 </i>
    <i name="hartreedc"> -10325.23090882 </i>
    <i name="XCdc">     21.01777284 </i>
    <i name="pawpsdc">   1249.68576238 </i>
    <i name="pawaedc">  -1158.76143032 </i>
    <i name="eentropy">      0.00000000 </i>
    <i name="bandstr">   -480.78697551 </i>
    <i name="atom">   2435.08307139 </i>
    <i name="e_fr_energy">    -53.18638130 </i>
    <i name="e_wo_entrp">    -53.18638130 </i>
    <i name="e_0_energy">    -53.18638130 </i>
   </energy>
  </scstep>
  <scstep>
   <time name="dav">   28.93   29.11</time>
   <time name="total">   82.68   83.03</time>
   <energy>
    <i name="e_fr_energy">    -53.17802321 </i>
    <i name="e_wo_entrp">    -53.17802321 </i>
    <i name="e_0_energy">    -53.17802321 </i>
   </energy>
  </scstep>
  <scstep>
   <time name="dav">   28.99   29.19</time>
   <time name="total">   82.79   83.10</time>
   <energy>
    <i name="e_fr_energy">    -53.17100662 </i>
    <i name="e_wo_entrp">    -53.17100662 </i>
    <i name="e_0_energy">    -53.17100662 </i>
   </energy>
  </scstep>
  <scstep>
   <time name="dav">   31.34   31.56</time>
   <time name="total">   85.27   85.57</time>
   <energy>
    <i name="e_fr_energy">    -53.16603981 </i>
    <i name="e_wo_entrp">    -53.16603981 </i>
    <i name="e_0_energy">    -53.16603981 </i>
   </energy>
  </scstep>
  <scstep>
   <time name="dav">   29.97   30.22</time>
   <time name="total">   83.78   84.21</time>
   <energy>
    <i name="e_fr_energy">    -53.16569972 </i>
    <i name="e_wo_entrp">    -53.16569972 </i>
    <i name="e_0_energy">    -53.16569972 </i>
   </energy>
  </scstep>
  <scstep>
   <time name="dav">   20.01   20.13</time>
   <time name="total">   72.03   72.24</time>
   <energy>
    <i name="alphaZ">     30.33107377 </i>
    <i name="ewald">   8175.47525298 </i>
    <i name="hartreedc"> -10334.33642470 </i>
    <i name="XCdc">     21.21852321 </i>
    <i name="pawpsdc">   1249.90442926 </i>
    <i name="pawaedc">  -1158.99147187 </i>
    <i name="eentropy">      0.00000000 </i>
    <i name="bandstr">   -471.85009130 </i>
    <i name="atom">   2435.08307139 </i>
    <i name="e_fr_energy">    -53.16563726 </i>
    <i name="e_wo_entrp">    -53.16563726 </i>
    <i name="e_0_energy">    -53.16563726 </i>
   </energy>
  </scstep>
  <structure>
   <crystal>
    <varray name="basis" >
     <v>       6.02881488       0.00000001       0.00000000 </v>
     <v>       3.01440712       5.22110662       0.00000000 </v>
     <v>      -0.00000000      -0.00000000      22.53598736 </v>
    </varray>
    <i name="volume">    709.36719612 </i>
    <varray name="rec_basis" >
     <v>       0.16587008      -0.09576513      -0.00000000 </v>
     <v>      -0.00000000       0.19153028       0.00000000 </v>
     <v>      -0.00000000      -0.00000000       0.04437347 </v>
    </varray>
   </crystal>
   <varray name="positions" >
    <v>       0.33333300       0.33333300       0.49992500 </v>
    <v>       0.66666700       0.66666700       0.50007500 </v>
    <v>       0.00000000       0.00000000       0.44821600 </v>
    <v>       0.00000000       0.00000000       0.55178400 </v>
    <v>       0.62629972       0.00006757       0.56904299 </v>
    <v>       0.00006757       0.37363371       0.56904299 </v>
    <v>       0.37363371       0.62629972       0.56904299 </v>
    <v>       0.37370028       0.99993243       0.43095701 </v>
    <v>       0.99993243       0.62636629       0.43095701 </v>
    <v>       0.62636629       0.37370028       0.43095701 </v>
   </varray>
  </structure>
  <varray name="forces" >
   <v>      -0.00000000      -0.00000000       0.01164638 </v>
   <v>      -0.00000000       0.00000000      -0.01164638 </v>
   <v>      -0.00000000       0.00000000      -0.25629200 </v>
   <v>      -0.00000000      -0.00000000       0.25629200 </v>
   <v>       0.08021310       0.00161760      -0.10717030 </v>
   <v>      -0.03870566      -0.07027537      -0.10717030 </v>
   <v>      -0.04150743       0.06865778      -0.10717030 </v>
   <v>      -0.08021310      -0.00161760       0.10717030 </v>
   <v>       0.03870566       0.07027537       0.10717030 </v>
   <v>       0.04150743      -0.06865778       0.10717030 </v>
  </varray>
  <varray name="stress" >
   <v>       0.56438040      -0.00000071       0.00000000 </v>
   <v>       0.00000064       0.56438035      -0.00000000 </v>
   <v>       0.00000000       0.00000000       0.58864622 </v>
  </varray>
  <energy>
   <i name="e_fr_energy">    -53.16563726 </i>
   <i name="e_wo_entrp">    -53.16563726 </i>
   <i name="e_0_energy">      0.00000000 </i>
  </energy>
  <time name="totalsc">  624.22  626.38</time>
 </calculation>
 <calculation>
  <scstep>
   <time name="dav">   29.07   29.34</time>
   <time name="total">   82.46   83.33</time>
   <energy>
    <i name="alphaZ">     29.78204579 </i>
    <i name="ewald">   8446.53840691 </i>
    <i name="hartreedc"> -10578.14241239 </i>
    <i name="XCdc">     20.74445377 </i>
    <i name="pawpsdc">   1248.94189290 </i>
    <i name="pawaedc">  -1158.00104477 </i>
    <i name="eentropy">      0.00000000 </i>
    <i name="bandstr">   -498.19020542 </i>
    <i name="atom">   2435.08307139 </i>
    <i name="e_fr_energy">    -53.24379181 </i>
    <i name="e_wo_entrp">    -53.24379181 </i>
    <i name="e_0_energy">    -53.24379181 </i>
   </energy>
  </scstep>
  <scstep>
   <time name="dav">   32.25   32.51</time>
   <time name="total">   85.88   86.37</time>
   <energy>
    <i name="e_fr_energy">    -53.21867399 </i>
    <i name="e_wo_entrp">    -53.21867399 </i>
    <i name="e_0_energy">    -53.21867399 </i>
   </energy>
  </scstep>
  <scstep>
   <time name="dav">   30.88   31.23</time>
   <time name="total">   84.42   85.07</time>
   <energy>
    <i name="e_fr_energy">    -53.19147197 </i>
    <i name="e_wo_entrp">    -53.19147197 </i>
    <i name="e_0_energy">    -53.19147197 </i>
   </energy>
  </scstep>
  <scstep>
   <time name="dav">   31.86   32.15</time>
   <time name="total">   85.27   86.12</time>
   <energy>
    <i name="e_fr_energy">    -53.16999548 </i>
    <i name="e_wo_entrp">    -53.16999548 </i>
    <i name="e_0_energy">    -53.16999548 </i>
   </energy>
  </scstep>
  <scstep>
   <time name="dav">   30.17   30.27</time>
   <time name="total">   84.01   84.22</time>
   <energy>
    <i name="e_fr_energy">    -53.16620768 </i>
    <i name="e_wo_entrp">    -53.16620768 </i>
    <i name="e_0_energy">    -53.16620768 </i>
   </energy>
  </scstep>
  <scstep>
   <time name="dav">   24.79   24.83</time>
   <time name="total">   78.66   78.72</time>
   <energy>
    <i name="e_fr_energy">    -53.16408774 </i>
    <i name="e_wo_entrp">    -53.16408774 </i>
    <i name="e_0_energy">    -53.16408774 </i>
   </energy>
  </scstep>
  <scstep>
   <time name="dav">   25.68   25.87</time>
   <time name="total">   79.51   79.84</time>
   <energy>
    <i name="e_fr_energy">    -53.15985820 </i>
    <i name="e_wo_entrp">    -53.15985820 </i>
    <i name="e_0_energy">    -53.15985820 </i>
   </energy>
  </scstep>
  <scstep>
   <time name="dav">   23.93   23.97</time>
   <time name="total">   77.74   77.86</time>
   <energy>
    <i name="e_fr_energy">    -53.15878817 </i>
    <i name="e_wo_entrp">    -53.15878817 </i>
    <i name="e_0_energy">    -53.15878817 </i>
   </energy>
  </scstep>
  <scstep>
   <time name="dav">   24.94   24.99</time>
   <time name="total">   78.77   78.89</time>
   <energy>
    <i name="e_fr_energy">    -53.15730912 </i>
    <i name="e_wo_entrp">    -53.15730912 </i>
    <i name="e_0_energy">    -53.15730912 </i>
   </energy>
  </scstep>
  <scstep>
   <time name="dav">   25.42   25.59</time>
   <time name="total">   79.15   79.45</time>
   <energy>
    <i name="e_fr_energy">    -53.15496730 </i>
    <i name="e_wo_entrp">    -53.15496730 </i>
    <i name="e_0_energy">    -53.15496730 </i>
   </energy>
  </scstep>
  <scstep>
   <time name="dav">   23.86   23.90</time>
   <time name="total">   77.60   77.77</time>
   <energy>
    <i name="e_fr_energy">    -53.15232360 </i>
    <i name="e_wo_entrp">    -53.15232360 </i>
    <i name="e_0_energy">    -53.15232360 </i>
   </energy>
  </scstep>
  <scstep>
   <time name="dav">   23.26   23.32</time>
   <time name="total">   75.11   75.27</time>
   <energy>
    <i name="alphaZ">     29.78204579 </i>
    <i name="ewald">   8446.53840691 </i>
    <i name="hartreedc"> -10609.77033513 </i>
    <i name="XCdc">     21.25184331 </i>
    <i name="pawpsdc">   1247.36558553 </i>
    <i name="pawaedc">  -1156.40664131 </i>
    <i name="eentropy">      0.00000000 </i>
    <i name="bandstr">   -466.99629485 </i>
    <i name="atom">   2435.08307139 </i>
    <i name="e_fr_energy">    -53.15231836 </i>
    <i name="e_wo_entrp">    -53.15231836 </i>
    <i name="e_0_energy">    -53.15231836 </i>
   </energy>
  </scstep>
  <structure>
   <crystal>
    <varray name="basis" >
     <v>       6.03019576      -0.00000001      -0.00000000 </v>
     <v>       3.01509757       5.22230248      -0.00000000 </v>
     <v>      -0.00000000      -0.00000000      22.94092500 </v>
    </varray>
    <i name="volume">    722.44428412 </i>
    <varray name="rec_basis" >
     <v>       0.16583210      -0.09574320      -0.00000000 </v>
     <v>       0.00000000       0.19148642       0.00000000 </v>
     <v>       0.00000000      -0.00000000       0.04359022 </v>
    </varray>
   </crystal>
   <varray name="positions" >
    <v>       0.33333300       0.33333300       0.49992500 </v>
    <v>       0.66666700       0.66666700       0.50007500 </v>
    <v>       0.00000000       0.00000000       0.44821600 </v>
    <v>       0.00000000       0.00000000       0.55178400 </v>
    <v>       0.62693322      -0.00004771       0.56793339 </v>
    <v>      -0.00004771       0.37311549       0.56793339 </v>
    <v>       0.37311549       0.62693322       0.56793339 </v>
    <v>       0.37306678       0.00004771       0.43206661 </v>
    <v>       0.00004771       0.62688451       0.43206661 </v>
    <v>       0.62688451       0.37306678       0.43206661 </v>
   </varray>
  </structure>
  <varray name="forces" >
   <v>      -0.00000000      -0.00000000       0.01546407 </v>
   <v>      -0.00000000       0.00000000      -0.01546407 </v>
   <v>       0.00000000      -0.00000000       0.35707258 </v>
   <v>      -0.00000000       0.00000000      -0.35707258 </v>
   <v>      -0.01343527       0.00498604      -0.10459520 </v>
   <v>       0.01103567       0.00914227      -0.10459520 </v>
   <v>       0.00239960      -0.01412830      -0.10459520 </v>
   <v>       0.01343527      -0.00498604       0.10459520 </v>
   <v>      -0.01103567      -0.00914227       0.10459520 </v>
   <v>      -0.00239960       0.01412830       0.10459520 </v>
  </varray>
  <varray name="stress" >
   <v>       1.00969872      -0.00000062       0.00000000 </v>
   <v>       0.00000050       1.00969863      -0.00000000 </v>
   <v>       0.00000000       0.00000000      -3.82536197 </v>
  </varray>
  <energy>
   <i name="e_fr_energy">    -53.15231836 </i>
   <i name="e_wo_entrp">    -53.15231836 </i>
   <i name="e_0_energy">      0.00000000 </i>
  </energy>
  <time name="totalsc"> 1103.58 1108.53</time>
 </calculation>
 <calculation>
  <scstep>
   <time name="dav">   23.40   23.57</time>
   <time name="total">   76.88   77.47</time>
   <energy>
    <i name="alphaZ">     30.00459755 </i>
    <i name="ewald">   8335.70143070 </i>
    <i name="hartreedc"> -10511.91262271 </i>
    <i name="XCdc">     21.44667198 </i>
    <i name="pawpsdc">   1247.38408914 </i>
    <i name="pawaedc">  -1156.41749094 </i>
    <i name="eentropy">      0.00000000 </i>
    <i name="bandstr">   -454.46015260 </i>
    <i name="atom">   2435.08307139 </i>
    <i name="e_fr_energy">    -53.17040548 </i>
    <i name="e_wo_entrp">    -53.17040548 </i>
    <i name="e_0_energy">    -53.17040548 </i>
   </energy>
  </scstep>
  <scstep>
   <time name="dav">   30.40   30.54</time>
   <time name="total">   84.18   84.47</time>
   <energy>
    <i name="e_fr_energy">    -53.16457370 </i>
    <i name="e_wo_entrp">    -53.16457370 </i>
    <i name="e_0_energy">    -53.16457370 </i>
   </energy>
  </scstep>
  <scstep>
   <time name="dav">   29.49   29.52</time>
   <time name="total">   83.43   83.61</time>
   <energy>
    <i name="e_fr_energy">    -53.16039826 </i>
    <i name="e_wo_entrp">    -53.16039826 </i>
    <i name="e_0_energy">    -53.16039826 </i>
   </energy>
  </scstep>
  <scstep>
   <time name="dav">   31.27   31.50</time>
   <time name="total">   85.01   85.51</time>
   <energy>
    <i name="e_fr_energy">    -53.15685388 </i>
    <i name="e_wo_entrp">    -53.15685388 </i>
    <i name="e_0_energy">    -53.15685388 </i>
   </energy>
  </scstep>
  <scstep>
   <time name="dav">   26.79   27.03</time>
   <time name="total">   80.48   81.21</time>
   <energy>
    <i name="e_fr_energy">    -53.15748882 </i>
    <i name="e_wo_entrp">    -53.15748882 </i>
    <i name="e_0_energy">    -53.15748882 </i>
   </energy>
  </scstep>
  <scstep>
   <time name="dav">   22.76   22.84</time>
   <time name="total">   76.46   76.86</time>
   <energy>
    <i name="e_fr_energy">    -53.15792240 </i>
    <i name="e_wo_entrp">    -53.15792240 </i>
    <i name="e_0_energy">    -53.15792240 </i>
   </energy>
  </scstep>
  <scstep>
   <time name="dav">   24.90   25.01</time>
   <time name="total">   78.76   78.99</time>
   <energy>
    <i name="e_fr_energy">    -53.15962219 </i>
    <i name="e_wo_entrp">    -53.15962219 </i>
    <i name="e_0_energy">    -53.15962219 </i>
   </energy>
  </scstep>
  <scstep>
   <time name="dav">   24.04   24.15</time>
   <time name="total">   77.92   78.15</time>
   <energy>
    <i name="e_fr_energy">    -53.16015060 </i>
    <i name="e_wo_entrp">    -53.16015060 </i>
    <i name="e_0_energy">    -53.16015060 </i>
   </energy>
  </scstep>
  <scstep>
   <time name="dav">   25.78   26.16</time>
   <time name="total">   79.60   80.12</time>
   <energy>
    <i name="e_fr_energy">    -53.16142014 </i>
    <i name="e_wo_entrp">    -53.16142014 </i>
    <i name="e_0_energy">    -53.16142014 </i>
   </energy>
  </scstep>
  <scstep>
   <time name="dav">   25.88   26.09</time>
   <time name="total">   79.59   80.29</time>
   <energy>
    <i name="e_fr_energy">    -53.16201948 </i>
    <i name="e_wo_entrp">    -53.16201948 </i>
    <i name="e_0_energy">    -53.16201948 </i>
   </energy>
  </scstep>
  <scstep>
   <time name="dav">   24.02   24.16</time>
   <time name="total">   78.09   78.33</time>
   <energy>
    <i name="e_fr_energy">    -53.16234866 </i>
    <i name="e_wo_entrp">    -53.16234866 </i>
    <i name="e_0_energy">    -53.16234866 </i>
   </energy>
  </scstep>
  <scstep>
   <time name="dav">   22.27   22.45</time>
   <time name="total">   76.33   76.78</time>
   <energy>
    <i name="e_fr_energy">    -53.16254583 </i>
    <i name="e_wo_entrp">    -53.16254583 </i>
    <i name="e_0_energy">    -53.16254583 </i>
   </energy>
  </scstep>
  <scstep>
   <time name="dav">   21.67   22.33</time>
   <time name="total">   75.78   76.59</time>
   <energy>
    <i name="e_fr_energy">    -53.16265561 </i>
    <i name="e_wo_entrp">    -53.16265561 </i>
    <i name="e_0_energy">    -53.16265561 </i>
   </energy>
  </scstep>
  <scstep>
   <time name="dav">   17.82   17.93</time>
   <time name="total">   70.05   70.32</time>
   <energy>
    <i name="alphaZ">     30.00459755 </i>
    <i name="ewald">   8335.70143070 </i>
    <i name="hartreedc"> -10504.12400389 </i>
    <i name="XCdc">     21.25936045 </i>
    <i name="pawpsdc">   1247.76250137 </i>
    <i name="pawaedc">  -1156.80541324 </i>
    <i name="eentropy">      0.00000000 </i>
    <i name="bandstr">   -462.04428011 </i>
    <i name="atom">   2435.08307139 </i>
    <i name="e_fr_energy">    -53.16273579 </i>
    <i name="e_wo_entrp">    -53.16273579 </i>
    <i name="e_0_energy">    -53.16273579 </i>
   </energy>
  </scstep>
  <structure>
   <crystal>
    <varray name="basis" >
     <v>       6.02963007       0.00000000      -0.00000000 </v>
     <v>       3.01481472       5.22181259      -0.00000000 </v>
     <v>      -0.00000000      -0.00000000      22.77503910 </v>
    </varray>
    <i name="volume">    717.08573051 </i>
    <varray name="rec_basis" >
     <v>       0.16584765      -0.09575218      -0.00000000 </v>
     <v>      -0.00000000       0.19150438       0.00000000 </v>
     <v>       0.00000000      -0.00000000       0.04390772 </v>
    </varray>
   </crystal>
   <varray name="positions" >
    <v>       0.33333300       0.33333300       0.49992500 </v>
    <v>       0.66666700       0.66666700       0.50007500 </v>
    <v>       0.00000000       0.00000000       0.44821600 </v>
    <v>       0.00000000       0.00000000       0.55178400 </v>
    <v>       0.62667376      -0.00000050       0.56837992 </v>
    <v>      -0.00000050       0.37332773       0.56837992 </v>
    <v>       0.37332773       0.62667376       0.56837992 </v>
    <v>       0.37332624       0.00000050       0.43162008 </v>
    <v>       0.00000050       0.62667227       0.43162008 </v>
    <v>       0.62667227       0.37332624       0.43162008 </v>
   </varray>
  </structure>
  <varray name="forces" >
   <v>      -0.00000000      -0.00000000       0.01347297 </v>
   <v>       0.00000000       0.00000000      -0.01347297 </v>
   <v>       0.00000000      -0.00000000       0.12259232 </v>
   <v>      -0.00000000       0.00000000      -0.12259232 </v>
   <v>       0.02583344       0.00368165      -0.10184684 </v>
   <v>      -0.00972832      -0.02421324      -0.10184684 </v>
   <v>      -0.01610512       0.02053159      -0.10184684 </v>
   <v>      -0.02583344      -0.00368165       0.10184684 </v>
   <v>       0.00972832       0.02421324       0.10184684 </v>
   <v>       0.01610512      -0.02053159       0.10184684 </v>
  </varray>
  <varray name="stress" >
   <v>       0.84250314      -0.00000067       0.00000000 </v>
   <v>       0.00000057       0.84250307      -0.00000000 </v>
   <v>      -0.00000000      -0.00000000      -2.87427804 </v>
  </varray>
  <energy>
   <i name="e_fr_energy">    -53.16273579 </i>
   <i name="e_wo_entrp">    -53.16273579 </i>
   <i name="e_0_energy">      0.00000000 </i>
  </energy>
  <time name="totalsc"> 1238.47 1245.30</time>
 </calculation>
 <calculation>
  <scstep>
   <time name="dav">   27.40   27.64</time>
   <time name="total">   81.82   82.36</time>
   <energy>
    <i name="alphaZ">     30.15022960 </i>
    <i name="ewald">   8160.46067147 </i>
    <i name="hartreedc"> -10342.89484462 </i>
    <i name="XCdc">     21.56104410 </i>
    <i name="pawpsdc">   1247.77120252 </i>
    <i name="pawaedc">  -1156.81421070 </i>
    <i name="eentropy">      0.00000000 </i>
    <i name="bandstr">   -448.51737999 </i>
    <i name="atom">   2435.08307139 </i>
    <i name="e_fr_energy">    -53.20021623 </i>
    <i name="e_wo_entrp">    -53.20021623 </i>
    <i name="e_0_energy">    -53.20021623 </i>
   </energy>
  </scstep>
  <scstep>
   <time name="dav">   30.67   31.25</time>
   <time name="total">   84.50   85.70</time>
   <energy>
    <i name="e_fr_energy">    -53.18089958 </i>
    <i name="e_wo_entrp">    -53.18089958 </i>
    <i name="e_0_energy">    -53.18089958 </i>
   </energy>
  </scstep>
  <scstep>
   <time name="dav">   31.93   32.19</time>
   <time name="total">   86.22   86.67</time>
   <energy>
    <i name="e_fr_energy">    -53.17518162 </i>
    <i name="e_wo_entrp">    -53.17518162 </i>
    <i name="e_0_energy">    -53.17518162 </i>
   </energy>
  </scstep>
  <scstep>
   <time name="dav">   29.22   29.51</time>
   <time name="total">   83.50   83.92</time>
   <energy>
    <i name="e_fr_energy">    -53.16836937 </i>
    <i name="e_wo_entrp">    -53.16836937 </i>
    <i name="e_0_energy">    -53.16836937 </i>
   </energy>
  </scstep>
  <scstep>
   <time name="dav">   30.27   30.42</time>
   <time name="total">   84.19   84.70</time>
   <energy>
    <i name="e_fr_energy">    -53.16762346 </i>
    <i name="e_wo_entrp">    -53.16762346 </i>
    <i name="e_0_energy">    -53.16762346 </i>
   </energy>
  </scstep>
  <scstep>
   <time name="dav">   24.48   24.60</time>
   <time name="total">   78.41   78.92</time>
   <energy>
    <i name="e_fr_energy">    -53.16808358 </i>
    <i name="e_wo_entrp">    -53.16808358 </i>
    <i name="e_0_energy">    -53.16808358 </i>
   </energy>
  </scstep>
  <scstep>
   <time name="dav">   23.63   23.78</time>
   <time name="total">   78.46   78.99</time>
   <energy>
    <i name="e_fr_energy">    -53.16890488 </i>
    <i name="e_wo_entrp">    -53.16890488 </i>
    <i name="e_0_energy">    -53.16890488 </i>
   </energy>
  </scstep>
  <scstep>
   <time name="dav">   24.59   24.64</time>
   <time name="total">   78.90   79.13</time>
   <energy>
    <i name="e_fr_energy">    -53.16941768 </i>
    <i name="e_wo_entrp">    -53.16941768 </i>
    <i name="e_0_energy">    -53.16941768 </i>
   </energy>
  </scstep>
  <scstep>
   <time name="dav">   25.26   25.42</time>
   <time name="total">   78.68   79.70</time>
   <energy>
    <i name="e_fr_energy">    -53.17029583 </i>
    <i name="e_wo_entrp">    -53.17029583 </i>
    <i name="e_0_energy">    -53.17029583 </i>
   </energy>
  </scstep>
  <scstep>
   <time name="dav">   25.14   25.91</time>
   <time name="total">   79.29   80.44</time>
   <energy>
    <i name="e_fr_energy">    -53.17071426 </i>
    <i name="e_wo_entrp">    -53.17071426 </i>
    <i name="e_0_energy">    -53.17071426 </i>
   </energy>
  </scstep>
  <scstep>
   <time name="dav">   26.14   26.17</time>
   <time name="total">   77.50   78.43</time>
   <energy>
    <i name="alphaZ">     30.15022960 </i>
    <i name="ewald">   8160.46067147 </i>
    <i name="hartreedc"> -10331.41867109 </i>
    <i name="XCdc">     21.32666783 </i>
    <i name="pawpsdc">   1252.04053643 </i>
    <i name="pawaedc">  -1161.14756821 </i>
    <i name="eentropy">      0.00000000 </i>
    <i name="bandstr">   -459.66562342 </i>
    <i name="atom">   2435.08307139 </i>
    <i name="e_fr_energy">    -53.17068599 </i>
    <i name="e_wo_entrp">    -53.17068599 </i>
    <i name="e_0_energy">    -53.17068599 </i>
   </energy>
  </scstep>
  <structure>
   <crystal>
    <varray name="basis" >
     <v>       6.04997852      -0.00000002      -0.00000000 </v>
     <v>       3.02498896       5.23943485      -0.00000000 </v>
     <v>      -0.00000000      -0.00000000      22.51282447 </v>
    </varray>
    <i name="volume">    713.62205321 </i>
    <varray name="rec_basis" >
     <v>       0.16528984      -0.09543013      -0.00000000 </v>
     <v>       0.00000000       0.19086028       0.00000000 </v>
     <v>       0.00000000       0.00000000       0.04441913 </v>
    </varray>
   </crystal>
   <varray name="positions" >
    <v>       0.33333300       0.33333300       0.49992500 </v>
    <v>       0.66666700       0.66666700       0.50007500 </v>
    <v>       0.00000000       0.00000000       0.44821600 </v>
    <v>       0.00000000       0.00000000       0.55178400 </v>
    <v>       0.62702566       0.00006260       0.56797971 </v>
    <v>       0.00006260       0.37291274       0.56797971 </v>
    <v>       0.37291274       0.62702566       0.56797971 </v>
    <v>       0.37297434      -0.00006260       0.43202029 </v>
    <v>      -0.00006260       0.62708726       0.43202029 </v>
    <v>       0.62708726       0.37297434       0.43202029 </v>
   </varray>
  </structure>
  <varray name="forces" >
   <v>      -0.00000000       0.00000000       0.01147160 </v>
   <v>      -0.00000000       0.00000000      -0.01147160 </v>
   <v>      -0.00000000       0.00000000      -0.21008412 </v>
   <v>      -0.00000000       0.00000000       0.21008412 </v>
   <v>       0.05148939       0.00202581       0.02952361 </v>
   <v>      -0.02399028      -0.04560402       0.02952361 </v>
   <v>      -0.02749910       0.04357821       0.02952361 </v>
   <v>      -0.05148939      -0.00202581      -0.02952361 </v>
   <v>       0.02399028       0.04560402      -0.02952361 </v>
   <v>       0.02749910      -0.04357821      -0.02952361 </v>
  </varray>
  <varray name="stress" >
   <v>       0.48600878      -0.00000026       0.00000000 </v>
   <v>       0.00000020       0.48600874       0.00000000 </v>
   <v>       0.00000000       0.00000000       1.46253667 </v>
  </varray>
  <energy>
   <i name="e_fr_energy">    -53.17068599 </i>
   <i name="e_wo_entrp">    -53.17068599 </i>
   <i name="e_0_energy">      0.00000000 </i>
  </energy>
  <time name="totalsc"> 1027.19 1035.59</time>
 </calculation>
 <calculation>
  <scstep>
   <time name="dav">   24.30   24.65</time>
   <time name="total">   78.01   78.66</time>
   <energy>
    <i name="alphaZ">     30.11633526 </i>
    <i name="ewald">   8200.48853107 </i>
    <i name="hartreedc"> -10367.54484277 </i>
    <i name="XCdc">     21.25408581 </i>
    <i name="pawpsdc">   1252.04127851 </i>
    <i name="pawaedc">  -1161.14939686 </i>
    <i name="eentropy">      0.00000000 </i>
    <i name="bandstr">   -463.46195767 </i>
    <i name="atom">   2435.08307139 </i>
    <i name="e_fr_energy">    -53.17289526 </i>
    <i name="e_wo_entrp">    -53.17289526 </i>
    <i name="e_0_energy">    -53.17289526 </i>
   </energy>
  </scstep>
  <scstep>
   <time name="dav">   32.15   32.20</time>
   <time name="total">   86.91   87.18</time>
   <energy>
    <i name="e_fr_energy">    -53.17188975 </i>
    <i name="e_wo_entrp">    -53.17188975 </i>
    <i name="e_0_energy">    -53.17188975 </i>
   </energy>
  </scstep>
  <scstep>
   <time name="dav">   30.24   30.68</time>
   <time name="total">   84.30   84.82</time>
   <energy>
    <i name="e_fr_energy">    -53.17152624 </i>
    <i name="e_wo_entrp">    -53.17152624 </i>
    <i name="e_0_energy">    -53.17152624 </i>
   </energy>
  </scstep>
  <scstep>
   <time name="dav">   27.23   27.99</time>
[...]
        <r>  0.0062  0.0006  0.0038  0.0496  0.0000  0.0000  0.0000  0.0000  0.0000 </r>
        <r>  0.0030  0.0264  0.0039  0.0088  0.0000  0.0000  0.0000  0.0000  0.0000 </r>
        <r>  0.0062  0.0324  0.0038  0.0178  0.0000  0.0000  0.0000  0.0000  0.0000 </r>
       </set>
       <set comment="band 30">
        <r>  0.0000  0.0002  0.0000  0.0001  0.1428  0.0154  0.0191  0.0178  0.2433 </r>
        <r>  0.0000  0.0002  0.0000  0.0001  0.1428  0.0154  0.0191  0.0178  0.2433 </r>
        <r>  0.0000  0.0001  0.0000  0.0004  0.0000  0.0000  0.0000  0.0000  0.0001 </r>
        <r>  0.0000  0.0001  0.0000  0.0004  0.0000  0.0000  0.0000  0.0000  0.0001 </r>
        <r>  0.0001  0.0025  0.0012  0.0002  0.0000  0.0000  0.0000  0.0000  0.0000 </r>
        <r>  0.0000  0.0008  0.0000  0.0026  0.0000  0.0000  0.0000  0.0000  0.0000 </r>
        <r>  0.0001  0.0005  0.0012  0.0020  0.0000  0.0000  0.0000  0.0000  0.0000 </r>
        <r>  0.0001  0.0025  0.0012  0.0002  0.0000  0.0000  0.0000  0.0000  0.0000 </r>
        <r>  0.0000  0.0008  0.0000  0.0026  0.0000  0.0000  0.0000  0.0000  0.0000 </r>
        <r>  0.0001  0.0005  0.0012  0.0020  0.0000  0.0000  0.0000  0.0000  0.0000 </r>
       </set>
       <set comment="band 31">
        <r>  0.0014  0.0003  0.0000  0.0003  0.0735  0.0026  0.2271  0.0018  0.1004 </r>
        <r>  0.0014  0.0003  0.0000  0.0003  0.0735  0.0026  0.2271  0.0018  0.1004 </r>
        <r>  0.0043  0.0023  0.0010  0.0008  0.0006  0.0002  0.0000  0.0001  0.0002 </r>
        <r>  0.0043  0.0023  0.0010  0.0008  0.0006  0.0002  0.0000  0.0001  0.0002 </r>
        <r>  0.0000  0.0015  0.0012  0.0048  0.0000  0.0000  0.0000  0.0000  0.0000 </r>
        <r>  0.0010  0.0000  0.0058  0.0000  0.0000  0.0000  0.0000  0.0000  0.0000 </r>
        <r>  0.0000  0.0027  0.0011  0.0036  0.0000  0.0000  0.0000  0.0000  0.0000 </r>
        <r>  0.0000  0.0015  0.0012  0.0048  0.0000  0.0000  0.0000  0.0000  0.0000 </r>
        <r>  0.0010  0.0000  0.0058  0.0000  0.0000  0.0000  0.0000  0.0000  0.0000 </r>
        <r>  0.0000  0.0027  0.0011  0.0036  0.0000  0.0000  0.0000  0.0000  0.0000 </r>
       </set>
       <set comment="band 32">
        <r>  0.0019  0.0001  0.0000  0.0001  0.1647  0.0011  0.1943  0.0014  0.0687 </r>
        <r>  0.0019  0.0001  0.0000  0.0001  0.1647  0.0011  0.1943  0.0014  0.0687 </r>
        <r>  0.0000  0.0015  0.0000  0.0043  0.0000  0.0000  0.0000  0.0001  0.0001 </r>
        <r>  0.0000  0.0015  0.0000  0.0043  0.0000  0.0000  0.0000  0.0001  0.0001 </r>
        <r>  0.0007  0.0026  0.0023  0.0009  0.0000  0.0000  0.0000  0.0000  0.0000 </r>
        <r>  0.0000  0.0005  0.0000  0.0017  0.0000  0.0000  0.0000  0.0000  0.0000 </r>
        <r>  0.0007  0.0027  0.0024  0.0009  0.0000  0.0000  0.0000  0.0000  0.0000 </r>
        <r>  0.0007  0.0026  0.0023  0.0009  0.0000  0.0000  0.0000  0.0000  0.0000 </r>
        <r>  0.0000  0.0005  0.0000  0.0017  0.0000  0.0000  0.0000  0.0000  0.0000 </r>
        <r>  0.0007  0.0027  0.0024  0.0009  0.0000  0.0000  0.0000  0.0000  0.0000 </r>
       </set>
       <set comment="band 33">
        <r>  0.0004  0.0000  0.0001  0.0001  0.1015  0.0443  0.0039  0.0782  0.0709 </r>
        <r>  0.0004  0.0000  0.0001  0.0001  0.1015  0.0443  0.0039  0.0782  0.0709 </r>
        <r>  0.0095  0.0013  0.0126  0.0004  0.0000  0.0000  0.0043  0.0000  0.0000 </r>
        <r>  0.0095  0.0013  0.0126  0.0004  0.0000  0.0000  0.0043  0.0000  0.0000 </r>
        <r>  0.0032  0.0013  0.0081  0.0028  0.0000  0.0000  0.0000  0.0000  0.0000 </r>
        <r>  0.0069  0.0057  0.0058  0.0019  0.0000  0.0000  0.0000  0.0000  0.0000 </r>
        <r>  0.0032  0.0010  0.0081  0.0031  0.0000  0.0000  0.0000  0.0000  0.0000 </r>
        <r>  0.0032  0.0013  0.0081  0.0028  0.0000  0.0000  0.0000  0.0000  0.0000 </r>
        <r>  0.0069  0.0057  0.0058  0.0019  0.0000  0.0000  0.0000  0.0000  0.0000 </r>
        <r>  0.0032  0.0010  0.0081  0.0031  0.0000  0.0000  0.0000  0.0000  0.0000 </r>
       </set>
       <set comment="band 34">
        <r>  0.0004  0.0001  0.0011  0.0002  0.0089  0.1805  0.0304  0.0805  0.0066 </r>
        <r>  0.0004  0.0001  0.0011  0.0002  0.0089  0.1805  0.0304  0.0805  0.0066 </r>
        <r>  0.0000  0.0032  0.0000  0.0096  0.0013  0.0001  0.0000  0.0003  0.0038 </r>
        <r>  0.0000  0.0032  0.0000  0.0096  0.0013  0.0001  0.0000  0.0003  0.0038 </r>
        <r>  0.0050  0.0079  0.0057  0.0074  0.0000  0.0000  0.0000  0.0000  0.0000 </r>
        <r>  0.0000  0.0014  0.0000  0.0042  0.0000  0.0000  0.0000  0.0000  0.0000 </r>
        <r>  0.0050  0.0029  0.0057  0.0124  0.0000  0.0000  0.0000  0.0000  0.0000 </r>
        <r>  0.0050  0.0079  0.0057  0.0074  0.0000  0.0000  0.0000  0.0000  0.0000 </r>
        <r>  0.0000  0.0014  0.0000  0.0042  0.0000  0.0000  0.0000  0.0000  0.0000 </r>
        <r>  0.0050  0.0029  0.0057  0.0124  0.0000  0.0000  0.0000  0.0000  0.0000 </r>
       </set>
       <set comment="band 35">
        <r>  0.0000  0.0002  0.0000  0.0001  0.0438  0.1223  0.0254  0.1280  0.0196 </r>
        <r>  0.0000  0.0002  0.0000  0.0001  0.0438  0.1223  0.0254  0.1280  0.0196 </r>
        <r>  0.0022  0.0000  0.0007  0.0000  0.0006  0.0003  0.0003  0.0001  0.0002 </r>
        <r>  0.0022  0.0000  0.0007  0.0000  0.0006  0.0003  0.0003  0.0001  0.0002 </r>
        <r>  0.0025  0.0105  0.0054  0.0001  0.0000  0.0000  0.0000  0.0000  0.0000 </r>
        <r>  0.0047  0.0164  0.0130  0.0054  0.0000  0.0000  0.0000  0.0000  0.0000 </r>
        <r>  0.0024  0.0025  0.0053  0.0082  0.0000  0.0000  0.0000  0.0000  0.0000 </r>
        <r>  0.0025  0.0105  0.0054  0.0001  0.0000  0.0000  0.0000  0.0000  0.0000 </r>
        <r>  0.0047  0.0164  0.0130  0.0054  0.0000  0.0000  0.0000  0.0000  0.0000 </r>
        <r>  0.0024  0.0025  0.0053  0.0082  0.0000  0.0000  0.0000  0.0000  0.0000 </r>
       </set>
       <set comment="band 36">
        <r>  0.0004  0.0001  0.0001  0.0002  0.0058  0.0895  0.0061  0.2039  0.0167 </r>
        <r>  0.0004  0.0001  0.0001  0.0002  0.0058  0.0895  0.0061  0.2039  0.0167 </r>
        <r>  0.0000  0.0006  0.0000  0.0019  0.0001  0.0001  0.0000  0.0002  0.0002 </r>
        <r>  0.0000  0.0006  0.0000  0.0019  0.0001  0.0001  0.0000  0.0002  0.0002 </r>
        <r>  0.0024  0.0254  0.0017  0.0008  0.0000  0.0000  0.0000  0.0000  0.0000 </r>
        <r>  0.0000  0.0073  0.0000  0.0220  0.0000  0.0000  0.0000  0.0000  0.0000 </r>
        <r>  0.0025  0.0030  0.0017  0.0232  0.0000  0.0000  0.0000  0.0000  0.0000 </r>
        <r>  0.0024  0.0254  0.0017  0.0008  0.0000  0.0000  0.0000  0.0000  0.0000 </r>
        <r>  0.0000  0.0073  0.0000  0.0220  0.0000  0.0000  0.0000  0.0000  0.0000 </r>
        <r>  0.0025  0.0030  0.0017  0.0232  0.0000  0.0000  0.0000  0.0000  0.0000 </r>
       </set>
       <set comment="band 37">
        <r>  0.0001  0.0003  0.0000  0.0005  0.0300  0.1029  0.0006  0.0583  0.0172 </r>
        <r>  0.0001  0.0003  0.0000  0.0005  0.0300  0.1029  0.0006  0.0583  0.0172 </r>
        <r>  0.0247  0.0006  0.0483  0.0002  0.0000  0.0001  0.0019  0.0000  0.0000 </r>
        <r>  0.0247  0.0006  0.0483  0.0002  0.0000  0.0001  0.0019  0.0000  0.0000 </r>
        <r>  0.0002  0.0002  0.0085  0.0324  0.0000  0.0000  0.0000  0.0000  0.0000 </r>
        <r>  0.0003  0.0177  0.0030  0.0059  0.0000  0.0000  0.0000  0.0000  0.0000 </r>
        <r>  0.0002  0.0224  0.0085  0.0102  0.0000  0.0000  0.0000  0.0000  0.0000 </r>
        <r>  0.0002  0.0002  0.0085  0.0324  0.0000  0.0000  0.0000  0.0000  0.0000 </r>
        <r>  0.0003  0.0177  0.0030  0.0059  0.0000  0.0000  0.0000  0.0000  0.0000 </r>
        <r>  0.0002  0.0224  0.0085  0.0102  0.0000  0.0000  0.0000  0.0000  0.0000 </r>
       </set>
       <set comment="band 38">
        <r>  0.0088  0.0007  0.0043  0.0019  0.0002  0.0004  0.0056  0.0003  0.0003 </r>
        <r>  0.0088  0.0007  0.0043  0.0019  0.0002  0.0004  0.0056  0.0003  0.0003 </r>
        <r>  0.0007  0.0682  0.0004  0.0228  0.0084  0.0068  0.0000  0.0023  0.0028 </r>
        <r>  0.0007  0.0682  0.0004  0.0228  0.0084  0.0068  0.0000  0.0023  0.0028 </r>
        <r>  0.0023  0.0025  0.0028  0.0047  0.0000  0.0000  0.0000  0.0000  0.0000 </r>
        <r>  0.0166  0.0362  0.0032  0.0121  0.0000  0.0000  0.0000  0.0000  0.0000 </r>
        <r>  0.0023  0.0012  0.0028  0.0060  0.0000  0.0000  0.0000  0.0000  0.0000 </r>
        <r>  0.0023  0.0025  0.0028  0.0047  0.0000  0.0000  0.0000  0.0000  0.0000 </r>
        <r>  0.0166  0.0362  0.0032  0.0121  0.0000  0.0000  0.0000  0.0000  0.0000 </r>
        <r>  0.0023  0.0012  0.0028  0.0060  0.0000  0.0000  0.0000  0.0000  0.0000 </r>
       </set>
       <set comment="band 39">
        <r>  0.0069  0.0021  0.0030  0.0020  0.0063  0.0191  0.0128  0.0064  0.0022 </r>
        <r>  0.0069  0.0021  0.0030  0.0020  0.0063  0.0191  0.0128  0.0064  0.0022 </r>
        <r>  0.0000  0.0183  0.0000  0.0546  0.0016  0.0021  0.0000  0.0063  0.0049 </r>
        <r>  0.0000  0.0183  0.0000  0.0546  0.0016  0.0021  0.0000  0.0063  0.0049 </r>
        <r>  0.0086  0.0170  0.0018  0.0239  0.0000  0.0000  0.0000  0.0000  0.0000 </r>
        <r>  0.0000  0.0043  0.0000  0.0129  0.0000  0.0000  0.0000  0.0000  0.0000 </r>
        <r>  0.0086  0.0395  0.0018  0.0015  0.0000  0.0000  0.0000  0.0000  0.0000 </r>
        <r>  0.0086  0.0170  0.0018  0.0239  0.0000  0.0000  0.0000  0.0000  0.0000 </r>
        <r>  0.0000  0.0043  0.0000  0.0129  0.0000  0.0000  0.0000  0.0000  0.0000 </r>
        <r>  0.0086  0.0395  0.0018  0.0015  0.0000  0.0000  0.0000  0.0000  0.0000 </r>
       </set>
       <set comment="band 40">
        <r>  0.0025  0.0055  0.0017  0.0033  0.0137  0.0047  0.0009  0.0032  0.0269 </r>
        <r>  0.0025  0.0055  0.0017  0.0033  0.0137  0.0047  0.0009  0.0032  0.0269 </r>
        <r>  0.0242  0.0063  0.0447  0.0020  0.0007  0.0002  0.0128  0.0001  0.0002 </r>
        <r>  0.0242  0.0063  0.0447  0.0020  0.0007  0.0002  0.0128  0.0001  0.0002 </r>
        <r>  0.0001  0.0001  0.0097  0.0006  0.0000  0.0000  0.0000  0.0000  0.0000 </r>
        <r>  0.0039  0.0019  0.0199  0.0007  0.0000  0.0000  0.0000  0.0000  0.0000 </r>
        <r>  0.0001  0.0003  0.0098  0.0005  0.0000  0.0000  0.0000  0.0000  0.0000 </r>
        <r>  0.0001  0.0001  0.0097  0.0006  0.0000  0.0000  0.0000  0.0000  0.0000 </r>
        <r>  0.0039  0.0019  0.0199  0.0007  0.0000  0.0000  0.0000  0.0000  0.0000 </r>
        <r>  0.0001  0.0003  0.0098  0.0005  0.0000  0.0000  0.0000  0.0000  0.0000 </r>
       </set>
       <set comment="band 41">
        <r>  0.0115  0.0002  0.0015  0.0001  0.0117  0.0098  0.0063  0.0155  0.0199 </r>
        <r>  0.0115  0.0002  0.0015  0.0001  0.0117  0.0098  0.0063  0.0155  0.0199 </r>
        <r>  0.0000  0.0208  0.0000  0.0625  0.0029  0.0003  0.0000  0.0009  0.0089 </r>
        <r>  0.0000  0.0208  0.0000  0.0625  0.0029  0.0003  0.0000  0.0009  0.0089 </r>
        <r>  0.0063  0.0059  0.0007  0.0149  0.0000  0.0000  0.0000  0.0000  0.0000 </r>
        <r>  0.0000  0.0040  0.0000  0.0121  0.0000  0.0000  0.0000  0.0000  0.0000 </r>
        <r>  0.0063  0.0204  0.0006  0.0004  0.0000  0.0000  0.0000  0.0000  0.0000 </r>
        <r>  0.0063  0.0059  0.0007  0.0149  0.0000  0.0000  0.0000  0.0000  0.0000 </r>
        <r>  0.0000  0.0040  0.0000  0.0121  0.0000  0.0000  0.0000  0.0000  0.0000 </r>
        <r>  0.0063  0.0204  0.0006  0.0004  0.0000  0.0000  0.0000  0.0000  0.0000 </r>
       </set>
       <set comment="band 42">
        <r>  0.0205  0.0010  0.0015  0.0004  0.0189  0.0031  0.0152  0.0093  0.0069 </r>
        <r>  0.0205  0.0010  0.0015  0.0004  0.0189  0.0031  0.0152  0.0093  0.0069 </r>
        <r>  0.0036  0.0561  0.0035  0.0188  0.0099  0.0014  0.0012  0.0005  0.0033 </r>
        <r>  0.0036  0.0561  0.0035  0.0188  0.0099  0.0014  0.0012  0.0005  0.0033 </r>
        <r>  0.0021  0.0027  0.0009  0.0006  0.0000  0.0000  0.0000  0.0000  0.0000 </r>
        <r>  0.0159  0.0122  0.0072  0.0041  0.0000  0.0000  0.0000  0.0000  0.0000 </r>
        <r>  0.0021  0.0006  0.0009  0.0027  0.0000  0.0000  0.0000  0.0000  0.0000 </r>
        <r>  0.0021  0.0027  0.0009  0.0006  0.0000  0.0000  0.0000  0.0000  0.0000 </r>
        <r>  0.0159  0.0122  0.0072  0.0041  0.0000  0.0000  0.0000  0.0000  0.0000 </r>
        <r>  0.0021  0.0006  0.0009  0.0027  0.0000  0.0000  0.0000  0.0000  0.0000 </r>
       </set>
       <set comment="band 43">
        <r>  0.0010  0.0008  0.0006  0.0021  0.0012  0.0003  0.0045  0.0001  0.0029 </r>
        <r>  0.0010  0.0008  0.0006  0.0021  0.0012  0.0003  0.0045  0.0001  0.0029 </r>
        <r>  0.0039  0.0039  0.0045  0.0013  0.0013  0.0002  0.0027  0.0001  0.0004 </r>
        <r>  0.0039  0.0039  0.0045  0.0013  0.0013  0.0002  0.0027  0.0001  0.0004 </r>
        <r>  0.0007  0.0003  0.0015  0.0011  0.0000  0.0000  0.0000  0.0000  0.0000 </r>
        <r>  0.0004  0.0039  0.0030  0.0013  0.0000  0.0000  0.0000  0.0000  0.0000 </r>
        <r>  0.0007  0.0005  0.0014  0.0009  0.0000  0.0000  0.0000  0.0000  0.0000 </r>
        <r>  0.0007  0.0003  0.0015  0.0011  0.0000  0.0000  0.0000  0.0000  0.0000 </r>
        <r>  0.0004  0.0039  0.0030  0.0013  0.0000  0.0000  0.0000  0.0000  0.0000 </r>
        <r>  0.0007  0.0005  0.0014  0.0009  0.0000  0.0000  0.0000  0.0000  0.0000 </r>
       </set>
       <set comment="band 44">
        <r>  0.0014  0.0022  0.0019  0.0010  0.0034  0.0005  0.0003  0.0005  0.0047 </r>
        <r>  0.0014  0.0022  0.0019  0.0010  0.0034  0.0005  0.0003  0.0005  0.0047 </r>
        <r>  0.0000  0.0008  0.0000  0.0024  0.0001  0.0000  0.0000  0.0000  0.0004 </r>
        <r>  0.0000  0.0008  0.0000  0.0024  0.0001  0.0000  0.0000  0.0000  0.0004 </r>
        <r>  0.0011  0.0008  0.0074  0.0013  0.0000  0.0000  0.0000  0.0000  0.0000 </r>
        <r>  0.0000  0.0004  0.0000  0.0013  0.0000  0.0000  0.0000  0.0000  0.0000 </r>
        <r>  0.0011  0.0019  0.0075  0.0001  0.0000  0.0000  0.0000  0.0000  0.0000 </r>
        <r>  0.0011  0.0008  0.0074  0.0013  0.0000  0.0000  0.0000  0.0000  0.0000 </r>
        <r>  0.0000  0.0004  0.0000  0.0013  0.0000  0.0000  0.0000  0.0000  0.0000 </r>
        <r>  0.0011  0.0019  0.0075  0.0001  0.0000  0.0000  0.0000  0.0000  0.0000 </r>
       </set>
       <set comment="band 45">
        <r>  0.0008  0.0003  0.0001  0.0007  0.0007  0.0003  0.0057  0.0001  0.0012 </r>
        <r>  0.0008  0.0003  0.0001  0.0007  0.0007  0.0003  0.0057  0.0001  0.0012 </r>
        <r>  0.0000  0.0010  0.0000  0.0031  0.0002  0.0001  0.0000  0.0002  0.0006 </r>
        <r>  0.0000  0.0010  0.0000  0.0031  0.0002  0.0001  0.0000  0.0002  0.0006 </r>
        <r>  0.0011  0.0007  0.0039  0.0020  0.0000  0.0000  0.0000  0.0000  0.0000 </r>
        <r>  0.0000  0.0004  0.0000  0.0013  0.0000  0.0000  0.0000  0.0000  0.0000 </r>
        <r>  0.0011  0.0021  0.0039  0.0006  0.0000  0.0000  0.0000  0.0000  0.0000 </r>
        <r>  0.0011  0.0007  0.0039  0.0020  0.0000  0.0000  0.0000  0.0000  0.0000 </r>
        <r>  0.0000  0.0004  0.0000  0.0013  0.0000  0.0000  0.0000  0.0000  0.0000 </r>
        <r>  0.0011  0.0021  0.0039  0.0006  0.0000  0.0000  0.0000  0.0000  0.0000 </r>
       </set>
       <set comment="band 46">
        <r>  0.0034  0.0019  0.0060  0.0008  0.0055  0.0001  0.0034  0.0001  0.0068 </r>
        <r>  0.0034  0.0019  0.0060  0.0008  0.0055  0.0001  0.0034  0.0001  0.0068 </r>
        <r>  0.0008  0.0041  0.0073  0.0014  0.0014  0.0011  0.0011  0.0004  0.0005 </r>
        <r>  0.0008  0.0041  0.0073  0.0014  0.0014  0.0011  0.0011  0.0004  0.0005 </r>
        <r>  0.0000  0.0014  0.0011  0.0007  0.0000  0.0000  0.0000  0.0000  0.0000 </r>
        <r>  0.0005  0.0014  0.0040  0.0005  0.0000  0.0000  0.0000  0.0000  0.0000 </r>
        <r>  0.0001  0.0001  0.0012  0.0020  0.0000  0.0000  0.0000  0.0000  0.0000 </r>
        <r>  0.0000  0.0014  0.0011  0.0007  0.0000  0.0000  0.0000  0.0000  0.0000 </r>
        <r>  0.0005  0.0014  0.0040  0.0005  0.0000  0.0000  0.0000  0.0000  0.0000 </r>
        <r>  0.0001  0.0001  0.0012  0.0020  0.0000  0.0000  0.0000  0.0000  0.0000 </r>
       </set>
       <set comment="band 47">
        <r>  0.0314  0.0018  0.0000  0.0027  0.0002  0.0023  0.0020  0.0012  0.0005 </r>
        <r>  0.0314  0.0018  0.0000  0.0027  0.0002  0.0023  0.0020  0.0012  0.0005 </r>
        <r>  0.0014  0.0066  0.0118  0.0022  0.0005  0.0009  0.0036  0.0003  0.0002 </r>
        <r>  0.0014  0.0066  0.0118  0.0022  0.0005  0.0009  0.0036  0.0003  0.0002 </r>
        <r>  0.0003  0.0020  0.0027  0.0006  0.0000  0.0000  0.0000  0.0000  0.0000 </r>
        <r>  0.0005  0.0014  0.0119  0.0005  0.0000  0.0000  0.0000  0.0000  0.0000 </r>
        <r>  0.0003  0.0001  0.0027  0.0025  0.0000  0.0000  0.0000  0.0000  0.0000 </r>
        <r>  0.0003  0.0020  0.0027  0.0006  0.0000  0.0000  0.0000  0.0000  0.0000 </r>
        <r>  0.0005  0.0014  0.0119  0.0005  0.0000  0.0000  0.0000  0.0000  0.0000 </r>
        <r>  0.0003  0.0001  0.0027  0.0025  0.0000  0.0000  0.0000  0.0000  0.0000 </r>
       </set>
       <set comment="band 48">
        <r>  0.0025  0.0017  0.0047  0.0015  0.0043  0.0000  0.0044  0.0000  0.0046 </r>
        <r>  0.0025  0.0017  0.0047  0.0015  0.0043  0.0000  0.0044  0.0000  0.0046 </r>
        <r>  0.0028  0.0009  0.0060  0.0003  0.0011  0.0019  0.0014  0.0006  0.0004 </r>
        <r>  0.0028  0.0009  0.0060  0.0003  0.0011  0.0019  0.0014  0.0006  0.0004 </r>
        <r>  0.0011  0.0016  0.0009  0.0014  0.0000  0.0000  0.0000  0.0000  0.0000 </r>
        <r>  0.0007  0.0014  0.0015  0.0005  0.0000  0.0000  0.0000  0.0000  0.0000 </r>
        <r>  0.0011  0.0020  0.0009  0.0010  0.0000  0.0000  0.0000  0.0000  0.0000 </r>
        <r>  0.0011  0.0016  0.0009  0.0014  0.0000  0.0000  0.0000  0.0000  0.0000 </r>
        <r>  0.0007  0.0014  0.0015  0.0005  0.0000  0.0000  0.0000  0.0000  0.0000 </r>
        <r>  0.0011  0.0020  0.0009  0.0010  0.0000  0.0000  0.0000  0.0000  0.0000 </r>
       </set>
      </set>
     </set>
    </set>
   </array>
  </projected>
 </calculation>
 <structure name="finalpos" >
  <crystal>
   <varray name="basis" >
    <v>       6.05707687      -0.00000002      -0.00000000 </v>
    <v>       3.02853813       5.24558220       0.00000000 </v>
    <v>       0.00000000      -0.00000000      22.58403746 </v>
   </varray>
   <i name="volume">    717.56024399 </i>
   <varray name="rec_basis" >
    <v>       0.16509614      -0.09531829      -0.00000000 </v>
    <v>       0.00000000       0.19063661       0.00000000 </v>
    <v>       0.00000000      -0.00000000       0.04427906 </v>
   </varray>
  </crystal>
  <varray name="positions" >
   <v>       0.33333300       0.33333300       0.49992500 </v>
   <v>       0.66666700       0.66666700       0.50007500 </v>
   <v>       0.00000000       0.00000000       0.44821600 </v>
   <v>       0.00000000       0.00000000       0.55178400 </v>
   <v>       0.62740782       0.00007952       0.56799418 </v>
   <v>       0.00007952       0.37251366       0.56799418 </v>
   <v>       0.37251366       0.62740782       0.56799418 </v>
   <v>       0.37259218      -0.00007952       0.43200582 </v>
   <v>      -0.00007952       0.62748634       0.43200582 </v>
   <v>       0.62748634       0.37259218       0.43200582 </v>
  </varray>
  <varray name="selective"  type="logical" >
   <v type="logical" >  F  F  F </v>
   <v type="logical" >  F  F  F </v>
   <v type="logical" >  F  F  F </v>
   <v type="logical" >  F  F  F </v>
   <v type="logical" >  T  T  T </v>
   <v type="logical" >  T  T  T </v>
   <v type="logical" >  T  T  T </v>
   <v type="logical" >  T  T  T </v>
   <v type="logical" >  T  T  T </v>
   <v type="logical" >  T  T  T </v>
  </varray>
  <nose>
   <v>      -3.00000000       0.00000000       0.00010000       0.00010000 </v>
  </nose>
 </structure>
</modeling>
