unknown system                          
           1
     6.907777   -0.000000    0.000000
     3.453888    5.982310    0.000000
     0.000000    0.000000   23.444588
   Cr   Ge   S 
   2   2   6
Direct configuration=     1
   0.33333300  0.33333300  0.49992500
   0.66666700  0.66666700  0.50007500
   0.00000000  0.00000000  0.44821600
   0.00000000  0.00000000  0.55178400
   0.62635700  0.00042000  0.57375200
   0.00042000  0.37322400  0.57375200
   0.37322400  0.62635700  0.57375200
   0.37364300  0.99958000  0.42624800
   0.99958000  0.62677600  0.42624800
   0.62677600  0.37364300  0.42624800
unknown system                          
           1
     6.006365    0.000000   -0.000000
     3.003182    5.201664   -0.000000
     0.000000   -0.000000   21.825833
   Cr   Ge   S 
   2   2   6
Direct configuration=     2
   0.33333300  0.33333300  0.49992500
   0.66666700  0.66666700  0.50007500
   0.00000000  0.00000000  0.44821600
   0.00000000  0.00000000  0.55178400
   0.63295465  0.00038347  0.57043911
   0.00038347  0.36666289  0.57043911
   0.36666289  0.63295465  0.57043911
   0.36704535  0.99961653  0.42956089
   0.99961653  0.63333711  0.42956089
   0.63333711  0.36704535  0.42956089
unknown system                          
           1
     6.067876    0.000000   -0.000000
     3.033938    5.254934   -0.000000
     0.000000   -0.000000   21.936294
   Cr   Ge   S 
   2   2   6
Direct configuration=     3
   0.33333300  0.33333300  0.49992500
   0.66666700  0.66666700  0.50007500
   0.00000000  0.00000000  0.44821600
   0.00000000  0.00000000  0.55178400
   0.63243687  0.00038633  0.57068195
   0.00038633  0.36717780  0.57068195
   0.36717780  0.63243687  0.57068195
   0.36756313  0.99961367  0.42931805
   0.99961367  0.63282220  0.42931805
   0.63282220  0.36756313  0.42931805
unknown system                          
           1
     6.056869    0.000000   -0.000000
     3.028434    5.245403    0.000000
    -0.000000   -0.000000   22.046110
   Cr   Ge   S 
   2   2   6
Direct configuration=     4
   0.33333300  0.33333300  0.49992500
   0.66666700  0.66666700  0.50007500
   0.00000000  0.00000000  0.44821600
   0.00000000  0.00000000  0.55178400
   0.63065207  0.00031418  0.57038255
   0.00031418  0.36903475  0.57038255
   0.36903475  0.63065207  0.57038255
   0.36934793  0.99968582  0.42961745
   0.99968582  0.63096525  0.42961745
   0.63096525  0.36934793  0.42961745
unknown system                          
           1
     6.028122    0.000000    0.000000
     3.014061    5.220507    0.000000
    -0.000000   -0.000000   22.332930
   Cr   Ge   S 
   2   2   6
Direct configuration=     5
   0.33333300  0.33333300  0.49992500
   0.66666700  0.66666700  0.50007500
   0.00000000  0.00000000  0.44821600
   0.00000000  0.00000000  0.55178400
   0.62598201  0.00012538  0.56960446
   0.00012538  0.37389360  0.56960446
   0.37389360  0.62598201  0.56960446
   0.37401799  0.99987462  0.43039554
   0.99987462  0.62610640  0.43039554
   0.62610640  0.37401799  0.43039554
unknown system                          
           1
     6.028815    0.000000    0.000000
     3.014407    5.221107    0.000000
    -0.000000   -0.000000   22.535987
   Cr   Ge   S 
   2   2   6
Direct configuration=     6
   0.33333300  0.33333300  0.49992500
   0.66666700  0.66666700  0.50007500
   0.00000000  0.00000000  0.44821600
   0.00000000  0.00000000  0.55178400
   0.62629972  0.00006757  0.56904299
   0.00006757  0.37363371  0.56904299
   0.37363371  0.62629972  0.56904299
   0.37370028  0.99993243  0.43095701
   0.99993243  0.62636629  0.43095701
   0.62636629  0.37370028  0.43095701
unknown system                          
           1
     6.030196   -0.000000   -0.000000
     3.015098    5.222302   -0.000000
    -0.000000   -0.000000   22.940925
   Cr   Ge   S 
   2   2   6
Direct configuration=     7
   0.33333300  0.33333300  0.49992500
   0.66666700  0.66666700  0.50007500
   0.00000000  0.00000000  0.44821600
   0.00000000  0.00000000  0.55178400
   0.62693322 -0.00004771  0.56793339
  -0.00004771  0.37311549  0.56793339
   0.37311549  0.62693322  0.56793339
   0.37306678  0.00004771  0.43206661
   0.00004771  0.62688451  0.43206661
   0.62688451  0.37306678  0.43206661
unknown system                          
           1
     6.029630    0.000000   -0.000000
     3.014815    5.221813   -0.000000
    -0.000000   -0.000000   22.775039
   Cr   Ge   S 
   2   2   6
Direct configuration=     8
   0.33333300  0.33333300  0.49992500
   0.66666700  0.66666700  0.50007500
   0.00000000  0.00000000  0.44821600
   0.00000000  0.00000000  0.55178400
   0.62667376 -0.00000050  0.56837992
  -0.00000050  0.37332773  0.56837992
   0.37332773  0.62667376  0.56837992
   0.37332624  0.00000050  0.43162008
   0.00000050  0.62667227  0.43162008
   0.62667227  0.37332624  0.43162008
unknown system                          
           1
     6.049979   -0.000000   -0.000000
     3.024989    5.239435   -0.000000
    -0.000000   -0.000000   22.512824
   Cr   Ge   S 
   2   2   6
Direct configuration=     9
   0.33333300  0.33333300  0.49992500
   0.66666700  0.66666700  0.50007500
   0.00000000  0.00000000  0.44821600
   0.00000000  0.00000000  0.55178400
   0.62702566  0.00006260  0.56797971
   0.00006260  0.37291274  0.56797971
   0.37291274  0.62702566  0.56797971
   0.37297434 -0.00006260  0.43202029
  -0.00006260  0.62708726  0.43202029
   0.62708726  0.37297434  0.43202029
unknown system                          
           1
     6.045310   -0.000000   -0.000000
     3.022655    5.235392   -0.000000
    -0.000000   -0.000000   22.572987
   Cr   Ge   S 
   2   2   6
Direct configuration=    10
   0.33333300  0.33333300  0.49992500
   0.66666700  0.66666700  0.50007500
   0.00000000  0.00000000  0.44821600
   0.00000000  0.00000000  0.55178400
   0.62694519  0.00004817  0.56807260
   0.00004817  0.37300764  0.56807260
   0.37300764  0.62694519  0.56807260
   0.37305481 -0.00004817  0.43192740
  -0.00004817  0.62699236  0.43192740
   0.62699236  0.37305481  0.43192740
unknown system                          
           1
     6.063561   -0.000000    0.000000
     3.031780    5.251197    0.000000
     0.000000   -0.000000   22.590126
   Cr   Ge   S 
   2   2   6
Direct configuration=    11
   0.33333300  0.33333300  0.49992500
   0.66666700  0.66666700  0.50007500
   0.00000000  0.00000000  0.44821600
   0.00000000  0.00000000  0.55178400
   0.62766154  0.00009671  0.56795102
   0.00009671  0.37224274  0.56795102
   0.37224274  0.62766154  0.56795102
   0.37233846 -0.00009671  0.43204898
  -0.00009671  0.62775726  0.43204898
   0.62775726  0.37233846  0.43204898
unknown system                          
           1
     6.057077   -0.000000   -0.000000
     3.028538    5.245582    0.000000
     0.000000   -0.000000   22.584037
   Cr   Ge   S 
   2   2   6
Direct configuration=    12
   0.33333300  0.33333300  0.49992500
   0.66666700  0.66666700  0.50007500
   0.00000000  0.00000000  0.44821600
   0.00000000  0.00000000  0.55178400
   0.62740782  0.00007952  0.56799418
   0.00007952  0.37251366  0.56799418
   0.37251366  0.62740782  0.56799418
   0.37259218 -0.00007952  0.43200582
  -0.00007952  0.62748634  0.43200582
   0.62748634  0.37259218  0.43200582
