 vasp.5.4.4.18Apr17-6-g9f103f2a35 (build May  1 2020 15:48:39) complex           
 executed on             LinuxGNU date 2020.07.01  05:15:11
 running on    8 total cores
 distrk:  each k-point on    8 cores,    1 groups
 distr:  one band on NCORES_PER_BAND=   1 cores,    8 groups


--------------------------------------------------------------------------------------------------------


 INCAR:
 POTCAR:   PAW_PBE Cr 06Sep2000                   
 POTCAR:   PAW_PBE Si 05Jan2001                   
 POTCAR:   PAW_PBE Te 08Apr2002                   

 ----------------------------------------------------------------------------- 
|                                                                             |
|           W    W    AA    RRRRR   N    N  II  N    N   GGGG   !!!           |
|           W    W   A  A   R    R  NN   N  II  NN   N  G    G  !!!           |
|           W    W  A    A  R    R  N N  N  II  N N  N  G       !!!           |
|           W WW W  AAAAAA  RRRRR   N  N N  II  N  N N  G  GGG   !            |
|           WW  WW  A    A  R   R   N   NN  II  N   NN  G    G                |
|           W    W  A    A  R    R  N    N  II  N    N   GGGG   !!!           |
|                                                                             |
|      For optimal performance we recommend to set                            |
|        NCORE= 4 - approx SQRT( number of cores)                             |
|      NCORE specifies how many cores store one orbital (NPAR=cpu/NCORE).     |
|      This setting can  greatly improve the performance of VASP for DFT.     |
|      The default,   NCORE=1            might be grossly inefficient         |
|      on modern multi-core architectures or massively parallel machines.     |
|      Do your own testing !!!!                                               |
|      Unfortunately you need to use the default for GW and RPA calculations. |
|      (for HF NCORE is supported but not extensively tested yet)             |
|                                                                             |
 ----------------------------------------------------------------------------- 


 ----------------------------------------------------------------------------- 
|                                                                             |
|  ADVICE TO THIS USER RUNNING 'VASP/VAMP'   (HEAR YOUR MASTER'S VOICE ...):  |
|                                                                             |
|      You have switched on vdW-DFT.                                          |
|      This routine was written and supplied by Jiri Klimes.                  |
|      We recommed that you carefully read and cite the following             |
|      publication                                                            |
|      J. Klimes, D.R. Bowler, A. Michelides                                  |
|        J. Phys.: Cond Matt. 22 022201 (2010)                                |
|      J. Klimes, D.R. Bowler, A. Michelides                                  |
|        Phys. Rev. B. 83, 195131 (2011)                                      |
|      and references therein.                                                |
|                                                                             |
 ----------------------------------------------------------------------------- 

 POTCAR:   PAW_PBE Cr 06Sep2000                   
   VRHFIN =Cr : d5 s1                                                           
   LEXCH  = PE                                                                  
   EATOM  =   276.9744 eV,   20.3570 Ry                                         
                                                                                
   TITEL  = PAW_PBE Cr 06Sep2000                                                
   LULTRA =        F    use ultrasoft PP ?                                      
   IUNSCR =        1    unscreen: 0-lin 1-nonlin 2-no                           
   RPACOR =    2.080    partial core radius                                     
   POMASS =   51.996; ZVAL   =    6.000    mass and valenz                      
   RCORE  =    2.500    outmost cutoff radius                                   
   RWIGS  =    2.500; RWIGS  =    1.323    wigner-seitz radius (au A)           
   ENMAX  =  227.082; ENMIN  =  170.311 eV                                      
   RCLOC  =    1.721    cutoff for local pot                                    
   LCOR   =        T    correct aug charges                                     
   LPAW   =        T    paw PP                                                  
   EAUG   =  402.108                                                            
   DEXC   =    -.035                                                            
   RMAX   =    3.060    core radius for proj-oper                               
   RAUG   =    1.300    factor for augmentation sphere                          
   RDEP   =    2.609    radius for radial grids                                 
   QCUT   =   -4.085; QGAM   =    8.171    optimization parameters              
                                                                                
   Description                                                                  
     l     E      TYP  RCUT    TYP  RCUT                                        
     2   .000     23  2.500                                                     
     2   .000     23  2.500                                                     
     0   .000     23  2.500                                                     
     0   .000     23  2.500                                                     
     1  -.400     23  2.500                                                     
     1  2.000     23  2.500                                                     
     3   .000      7   .000                                                     
  local pseudopotential read in
  partial core-charges read in
  atomic valenz-charges read in
  non local Contribution for L=           2  read in
    real space projection operators read in
  non local Contribution for L=           2  read in
    real space projection operators read in
  non local Contribution for L=           0  read in
    real space projection operators read in
  non local Contribution for L=           0  read in
    real space projection operators read in
  non local Contribution for L=           1  read in
    real space projection operators read in
  non local Contribution for L=           1  read in
    real space projection operators read in
    PAW grid and wavefunctions read in

   number of l-projection  operators is LMAX  =           6
   number of lm-projection operators is LMMAX =          18

 POTCAR:   PAW_PBE Si 05Jan2001                   
   VRHFIN =Si: s2p2                                                             
   LEXCH  = PE                                                                  
   EATOM  =   103.0669 eV,    7.5752 Ry                                         
                                                                                
   TITEL  = PAW_PBE Si 05Jan2001                                                
   LULTRA =        F    use ultrasoft PP ?                                      
   IUNSCR =        1    unscreen: 0-lin 1-nonlin 2-no                           
   RPACOR =    1.500    partial core radius                                     
   POMASS =   28.085; ZVAL   =    4.000    mass and valenz                      
   RCORE  =    1.900    outmost cutoff radius                                   
   RWIGS  =    2.480; RWIGS  =    1.312    wigner-seitz radius (au A)           
   ENMAX  =  245.345; ENMIN  =  184.009 eV                                      
   ICORE  =        2    local potential                                         
   LCOR   =        T    correct aug charges                                     
   LPAW   =        T    paw PP                                                  
   EAUG   =  322.069                                                            
   DEXC   =    -.007                                                            
   RMAX   =    2.944    core radius for proj-oper                               
   RAUG   =    1.300    factor for augmentation sphere                          
   RDEP   =    1.993    radius for radial grids                                 
   QCUT   =   -4.246; QGAM   =    8.493    optimization parameters              
                                                                                
   Description                                                                  
     l     E      TYP  RCUT    TYP  RCUT                                        
     0   .000     23  1.900                                                     
     0   .000     23  1.900                                                     
     1   .000     23  1.900                                                     
     1   .000     23  1.900                                                     
     2   .000      7  1.900                                                     
  local pseudopotential read in
  partial core-charges read in
  atomic valenz-charges read in
  non local Contribution for L=           0  read in
    real space projection operators read in
  non local Contribution for L=           0  read in
    real space projection operators read in
  non local Contribution for L=           1  read in
    real space projection operators read in
  non local Contribution for L=           1  read in
    real space projection operators read in
    PAW grid and wavefunctions read in

   number of l-projection  operators is LMAX  =           4
   number of lm-projection operators is LMMAX =           8

 POTCAR:   PAW_PBE Te 08Apr2002                   
   VRHFIN =Te: s2p4                                                             
   LEXCH  = PE                                                                  
   EATOM  =   223.2721 eV,   16.4100 Ry                                         
                                                                                
   TITEL  = PAW_PBE Te 08Apr2002                                                
   LULTRA =        F    use ultrasoft PP ?                                      
   IUNSCR =        1    unscreen: 0-lin 1-nonlin 2-no                           
   RPACOR =    2.200    partial core radius                                     
   POMASS =  127.600; ZVAL   =    6.000    mass and valenz                      
   RCORE  =    2.300    outmost cutoff radius                                   
   RWIGS  =    2.900; RWIGS  =    1.535    wigner-seitz radius (au A)           
   ENMAX  =  174.982; ENMIN  =  131.236 eV                                      
   ICORE  =        3    local potential                                         
   LCOR   =        T    correct aug charges                                     
   LPAW   =        T    paw PP                                                  
   EAUG   =  368.792                                                            
   DEXC   =    -.169                                                            
   RMAX   =    3.486    core radius for proj-oper                               
   RAUG   =    1.300    factor for augmentation sphere                          
   RDEP   =    2.397    radius for radial grids                                 
   QCUT   =   -3.586; QGAM   =    7.172    optimization parameters              
                                                                                
   Description                                                                  
     l     E      TYP  RCUT    TYP  RCUT                                        
     0   .000     23  2.300                                                     
     0   .000     23  2.300                                                     
     1   .000     23  2.300                                                     
     1   .000     23  2.300                                                     
     2   .000     23  2.300                                                     
     3  -.100     23  2.300                                                     
  local pseudopotential read in
  partial core-charges read in
  atomic valenz-charges read in
  non local Contribution for L=           0  read in
    real space projection operators read in
  non local Contribution for L=           0  read in
    real space projection operators read in
  non local Contribution for L=           1  read in
    real space projection operators read in
  non local Contribution for L=           1  read in
    real space projection operators read in
  non local Contribution for L=           2  read in
    real space projection operators read in
    PAW grid and wavefunctions read in

   number of l-projection  operators is LMAX  =           5
   number of lm-projection operators is LMMAX =          13

 Optimization of the real space projectors (new method)

 maximal supplied QI-value         = 15.12
 optimisation between [QCUT,QGAM] = [ 11.64, 23.28] = [ 37.95,151.78] Ry 
 Optimized for a Real-space Cutoff    1.49 Angstroem

   l    n(q)    QCUT    max X(q) W(low)/X(q) W(high)/X(q)  e(spline) 
   2      9    11.641     4.777    0.25E-04    0.21E-05    0.63E-07
   2      9    11.641    31.132    0.13E-03    0.22E-03    0.64E-06
   0     10    11.641    20.416    0.11E-04    0.74E-05    0.19E-07
   0     10    11.641    45.408    0.10E-03    0.85E-04    0.30E-06
   1     10    11.641     7.848    0.22E-04    0.23E-04    0.56E-07
   1     10    11.641     9.895    0.85E-04    0.54E-04    0.16E-06
 Optimization of the real space projectors (new method)

 maximal supplied QI-value         = 19.84
 optimisation between [QCUT,QGAM] = [ 11.51, 23.22] = [ 37.09,150.92] Ry 
 Optimized for a Real-space Cutoff    1.21 Angstroem

   l    n(q)    QCUT    max X(q) W(low)/X(q) W(high)/X(q)  e(spline) 
   0      8    11.508     8.708    0.18E-04    0.44E-05    0.47E-08
   0      8    11.508   106.241    0.70E-04    0.15E-03    0.51E-07
   1      8    11.508     5.901    0.63E-05    0.23E-04    0.21E-07
   1      8    11.508    73.241    0.15E-03    0.36E-04    0.79E-07
 Optimization of the real space projectors (new method)

 maximal supplied QI-value         = 16.25
 optimisation between [QCUT,QGAM] = [ 11.54, 23.24] = [ 37.28,151.24] Ry 
 Optimized for a Real-space Cutoff    1.36 Angstroem

   l    n(q)    QCUT    max X(q) W(low)/X(q) W(high)/X(q)  e(spline) 
   0      9    11.539     7.090    0.13E-04    0.25E-05    0.51E-08
   0      9    11.539   101.654    0.53E-04    0.69E-04    0.12E-06
   1      9    11.539     5.276    0.20E-04    0.98E-05    0.24E-07
   1      9    11.539    81.891    0.24E-03    0.13E-04    0.15E-06
   2      9    11.539     5.599    0.30E-04    0.97E-04    0.54E-07

 ----------------------------------------------------------------------------- 
|                                                                             |
|  ADVICE TO THIS USER RUNNING 'VASP/VAMP'   (HEAR YOUR MASTER'S VOICE ...):  |
|                                                                             |
|      You enforced a specific xc-type in the INCAR file,                     |
|      a different type was found on the POTCAR file                          |
|          I HOPE YOU KNOW, WHAT YOU ARE  DOING                               |
|                                                                             |
 ----------------------------------------------------------------------------- 

 PAW_PBE Cr 06Sep2000                   :
 energy of atom  1       EATOM= -276.9744
 kinetic energy error for atom=    0.0010 (will be added to EATOM!!)
 PAW_PBE Si 05Jan2001                   :
 energy of atom  2       EATOM= -103.0669
 kinetic energy error for atom=    0.0005 (will be added to EATOM!!)
 PAW_PBE Te 08Apr2002                   :
 energy of atom  3       EATOM= -223.2721
 kinetic energy error for atom=    0.0007 (will be added to EATOM!!)


 POSCAR: Cr2 Si2 Te6                             
  positions in direct lattice
  velocities in cartesian coordinates
  No initial velocities read in
 exchange correlation table for  LEXCH =       42
   RHO(1)=    0.500       N(1)  =     2000
   RHO(2)=  100.500       N(2)  =     4000



--------------------------------------------------------------------------------------------------------


 ion  position               nearest neighbor table
   1  0.333  0.333  0.500-   6 2.78   5 2.78   7 2.78   8 2.78  10 2.78   9 2.78
   2  0.667  0.667  0.500-   9 2.78   8 2.78  10 2.78   5 2.78   7 2.78   6 2.78
   3  0.000  0.000  0.448-   4 2.43   8 2.63  10 2.63   9 2.63
   4  0.000  0.000  0.552-   3 2.43   5 2.63   7 2.63   6 2.63
   5  0.626  0.000  0.574-   4 2.63   1 2.78   2 2.78
   6  0.000  0.373  0.574-   4 2.63   1 2.78   2 2.78
   7  0.373  0.626  0.574-   4 2.63   1 2.78   2 2.78
   8  0.374  1.000  0.426-   3 2.63   2 2.78   1 2.78
   9  1.000  0.627  0.426-   3 2.63   2 2.78   1 2.78
  10  0.627  0.374  0.426-   3 2.63   2 2.78   1 2.78

  LATTYP: Found a hexagonal cell.
 ALAT       =     6.9077769333
 C/A-ratio  =     3.3939410937
  
  Lattice vectors:
  
 A1 = (   3.4538890000,  -5.9823100000,   0.0000000000)
 A2 = (  -6.9077770000,   0.0000000000,   0.0000000000)
 A3 = (   0.0000000000,   0.0000000000, -23.4445880000)


Analysis of symmetry for initial positions (statically):
=====================================================================
 Subroutine PRICEL returns:
 Original cell was already a primitive cell.
 

 Routine SETGRP: Setting up the symmetry group for a 
 hexagonal supercell.


 Subroutine GETGRP returns: Found  6 space group operations
 (whereof  6 operations were pure point group operations)
 out of a pool of 24 trial point group operations.


The static configuration has the point symmetry S_6 .


Analysis of symmetry for dynamics (positions and initial velocities):
=====================================================================
 Subroutine PRICEL returns:
 Original cell was already a primitive cell.
 

 Routine SETGRP: Setting up the symmetry group for a 
 hexagonal supercell.


 Subroutine GETGRP returns: Found  6 space group operations
 (whereof  6 operations were pure point group operations)
 out of a pool of 24 trial point group operations.


The dynamic configuration has the point symmetry S_6 .


Analysis of constrained symmetry for selective dynamics:
=====================================================================
 Subroutine PRICEL returns:
 Original cell was already a primitive cell.
 

 Routine SETGRP: Setting up the symmetry group for a 
 hexagonal supercell.


 Subroutine GETGRP returns: Found  6 space group operations
 (whereof  6 operations were pure point group operations)
 out of a pool of 24 trial point group operations.


The constrained configuration has the point symmetry S_6 .


Analysis of structural, dynamic, and magnetic symmetry:
=====================================================================
 Subroutine PRICEL returns:
 Original cell was already a primitive cell.
 

 Routine SETGRP: Setting up the symmetry group for a 
 hexagonal supercell.


 Subroutine GETGRP returns: Found  6 space group operations
 (whereof  6 operations were pure point group operations)
 out of a pool of 24 trial point group operations.


The magnetic configuration has the point symmetry S_6 .


 Subroutine INISYM returns: Found  6 space group operations
 (whereof  6 operations are pure point group operations),
 and found     1 'primitive' translations



 KPOINTS: Kpoints from vasprun.xml                

Automatic generation of k-mesh.
Space group operators:
 irot       det(A)        alpha          n_x          n_y          n_z        tau_x        tau_y        tau_z
    1     1.000000     0.000000     1.000000     0.000000     0.000000     0.000000     0.000000     0.000000
    2    -1.000000     0.000000     1.000000     0.000000     0.000000     0.000000     0.000000     0.000000
    3     1.000000   120.000000     0.000000     0.000000     1.000000     0.000000     0.000000     0.000000
    4    -1.000000   120.000000     0.000000     0.000000     1.000000     0.000000     0.000000     0.000000
    5     1.000000   120.000000     0.000000     0.000000    -1.000000     0.000000     0.000000     0.000000
    6    -1.000000   120.000000     0.000000     0.000000    -1.000000     0.000000     0.000000     0.000000
 
 Subroutine IBZKPT returns following result:
 ===========================================
 
 Found      5 irreducible k-points:
 
 Following reciprocal coordinates:
            Coordinates               Weight
  0.000000  0.000000  0.000000      1.000000
  0.200000  0.000000  0.000000      6.000000
  0.400000  0.000000  0.000000      6.000000
  0.400000  0.200000  0.000000      6.000000
 -0.400000  0.200000  0.000000      6.000000
 
 Following cartesian coordinates:
            Coordinates               Weight
  0.000000  0.000000  0.000000      1.000000
  0.028953 -0.016716  0.000000      6.000000
  0.057906 -0.033432  0.000000      6.000000
  0.057906  0.000000  0.000000      6.000000
 -0.057906  0.066864  0.000000      6.000000
 
 TETIRR: Found     15 inequivalent tetrahedra from      150


--------------------------------------------------------------------------------------------------------




 Dimension of arrays:
   k-points           NKPTS =      5   k-points in BZ     NKDIM =      5   number of bands    NBANDS=     40
   number of dos      NEDOS =    301   number of ions     NIONS =     10
   non local maximal  LDIM  =      6   non local SUM 2l+1 LMDIM =     18
   total plane-waves  NPLWV = 524880
   max r-space proj   IRMAX =   7543   max aug-charges    IRDMAX=  31706
   dimension x,y,z NGX =    54 NGY =   54 NGZ =  180
   dimension x,y,z NGXF=   108 NGYF=  108 NGZF=  360
   support grid    NGXF=   108 NGYF=  108 NGZF=  360
   ions per type =               2   2   6
   NGX,Y,Z   is equivalent  to a cutoff of  13.00, 13.00, 12.76 a.u.
   NGXF,Y,Z  is equivalent  to a cutoff of  25.99, 25.99, 25.53 a.u.

 SYSTEM =  unknown system                          
 POSCAR =  Cr2 Si2 Te6                             

 Startparameter for this run:
   NWRITE =      2    write-flag & timer
   PREC   = accura    normal or accurate (medium, high low for compatibility)
   ISTART =      0    job   : 0-new  1-cont  2-samecut
   ICHARG =      2    charge: 1-file 2-atom 10-const
   ISPIN  =      2    spin polarized calculation?
   LNONCOLLINEAR =      F non collinear calculations
   LSORBIT =      F    spin-orbit coupling
   INIWAV =      1    electr: 0-lowe 1-rand  2-diag
   LASPH  =      F    aspherical Exc in radial PAW
   METAGGA=      F    non-selfconsistent MetaGGA calc.

 Electronic Relaxation 1
   ENCUT  =  520.0 eV  38.22 Ry    6.18 a.u.  12.84 12.84 43.59*2*pi/ulx,y,z
   ENINI  =  520.0     initial cutoff
   ENAUG  =  402.1 eV  augmentation charge cutoff
   NELM   =    400;   NELMIN=  2; NELMDL=  0     # of ELM steps 
   EDIFF  = 0.1E-03   stopping-criterion for ELM
   LREAL  =      T    real-space projection
   NLSPLINE    = F    spline interpolate recip. space projectors
   LCOMPAT=      F    compatible to vasp.4.4
   GGA_COMPAT  = T    GGA compatible to vasp.4.4-vasp.4.6
   LMAXPAW     = -100 max onsite density
   LMAXMIX     =    2 max onsite mixed and CHGCAR
   VOSKOWN=      0    Vosko Wilk Nusair interpolation
   ROPT   =   -0.00025  -0.00025  -0.00025
 Ionic relaxation
   EDIFFG = 0.1E-02   stopping-criterion for IOM
   NSW    =     99    number of steps for IOM
   NBLOCK =      1;   KBLOCK =     99    inner block; outer block 
   IBRION =      2    ionic relax: 0-MD 1-quasi-New 2-CG
   NFREE  =      1    steps in history (QN), initial steepest desc. (CG)
   ISIF   =      3    stress and relaxation
   IWAVPR =     11    prediction:  0-non 1-charg 2-wave 3-comb
   ISYM   =      2    0-nonsym 1-usesym 2-fastsym
   LCORR  =      T    Harris-Foulkes like correction to forces

   POTIM  = 0.5000    time-step for ionic-motion
   TEIN   =    0.0    initial temperature
   TEBEG  =    0.0;   TEEND  =   0.0 temperature during run
   SMASS  =  -3.00    Nose mass-parameter (am)
   estimated Nose-frequenzy (Omega)   =  0.10E-29 period in steps =****** mass=  -0.109E-26a.u.
   SCALEE = 1.0000    scale energy and forces
   NPACO  =    256;   APACO  = 16.0  distance and # of slots for P.C.
   PSTRESS=    0.0 pullay stress

  Mass of Ions in am
   POMASS =  52.00 28.09127.60
  Ionic Valenz
   ZVAL   =   6.00  4.00  6.00
  Atomic Wigner-Seitz radii
   RWIGS  =  -1.00 -1.00 -1.00
  virtual crystal weights 
   VCA    =   1.00  1.00  1.00
   NELECT =      56.0000    total number of electrons
   NUPDOWN=      -1.0000    fix difference up-down

 DOS related values:
   EMIN   =  10.00;   EMAX   =-10.00  energy-range for DOS
   EFERMI =   0.00
   ISMEAR =    -5;   SIGMA  =   0.05  broadening in eV -4-tet -1-fermi 0-gaus

 Electronic relaxation 2 (details)
   IALGO  =     38    algorithm
   LDIAG  =      T    sub-space diagonalisation (order eigenvalues)
   LSUBROT=      F    optimize rotation matrix (better conditioning)
   TURBO    =      0    0=normal 1=particle mesh
   IRESTART =      0    0=no restart 2=restart with 2 vectors
   NREBOOT  =      0    no. of reboots
   NMIN     =      0    reboot dimension
   EREF     =   0.00    reference energy to select bands
   IMIX   =      4    mixing-type and parameters
     AMIX     =   0.40;   BMIX     =  1.00
     AMIX_MAG =   1.60;   BMIX_MAG =  1.00
     AMIN     =   0.01
     WC   =   100.;   INIMIX=   1;  MIXPRE=   1;  MAXMIX= -45

 Intra band minimization:
   WEIMIN = 0.0010     energy-eigenvalue tresh-hold
   EBREAK =  0.63E-06  absolut break condition
   DEPER  =   0.30     relativ break condition  

   TIME   =   0.40     timestep for ELM

  volume/ion in A,a.u.               =      96.88       653.80
  Fermi-wavevector in a.u.,A,eV,Ry     =   0.632976  1.196152  5.451299  0.400659
  Thomas-Fermi vector in A             =   1.696476

 Write flags
   LWAVE        =      F    write WAVECAR
   LDOWNSAMPLE  =      F    k-point downsampling of WAVECAR
   LCHARG       =      T    write CHGCAR
   LVTOT        =      F    write LOCPOT, total local potential
   LVHAR        =      F    write LOCPOT, Hartree potential only
   LELF         =      F    write electronic localiz. function (ELF)
   LORBIT       =     11    0 simple, 1 ext, 2 COOP (PROOUT), +10 PAW based schemes


 Dipole corrections
   LMONO  =      F    monopole corrections only (constant potential shift)
   LDIPOL =      F    correct potential (dipole corrections)
   IDIPOL =      0    1-x, 2-y, 3-z, 4-all directions 
   EPSILON=  1.0000000 bulk dielectric constant

 Exchange correlation treatment:
   GGA     =    BO    GGA type
   LEXCH   =    42    internal setting for exchange type
   VOSKOWN=      0    Vosko Wilk Nusair interpolation
   LHFCALC =     F    Hartree Fock is set to
   LHFONE  =     F    Hartree Fock one center treatment
   AEXX    =    0.0000 exact exchange contribution

 vdW DFT:
   LUSE_VDW   =     T    switch on vdW DFT
   Zab_VDW    =-.8491    correlation parameter
   PARAM1     =0.1833
   PARAM2     =0.2200
   PARAM3     =0.0000
   -- rVV10 --
   BPARAM     = 6.3000
   CPARAM     = 0.0093

 Linear response parameters
   LEPSILON=     F    determine dielectric tensor
   LRPA    =     F    only Hartree local field effects (RPA)
   LNABLA  =     F    use nabla operator in PAW spheres
   LVEL    =     F    velocity operator in full k-point grid
   LINTERFAST=   F  fast interpolation
   KINTER  =     0    interpolate to denser k-point grid
   CSHIFT  =0.1000    complex shift for real part using Kramers Kronig
   OMEGAMAX=  -1.0    maximum frequency
   DEG_THRESHOLD= 0.2000000E-02 threshold for treating states as degnerate
   RTIME   =   -0.100 relaxation time in fs
  (WPLASMAI=    0.000 imaginary part of plasma frequency in eV, 0.658/RTIME)
   DFIELD  = 0.0000000 0.0000000 0.0000000 field for delta impulse in time

 Orbital magnetization related:
   ORBITALMAG=     F  switch on orbital magnetization
   LCHIMAG   =     F  perturbation theory with respect to B field
   DQ        =  0.001000  dq finite difference perturbation B field
   LLRAUG    =     F  two centre corrections for induced B field



--------------------------------------------------------------------------------------------------------


 conjugate gradient relaxation of ions
   using selective dynamics as specified on POSCAR
 charge density and potential will be updated during run
 spin polarized calculation
 Variant of blocked Davidson
 Davidson routine will perform the subspace rotation
 perform sub-space diagonalisation
    after iterative eigenvector-optimisation
 modified Broyden-mixing scheme, WC =      100.0
 initial mixing is a Kerker type mixing with AMIX =  0.4000 and BMIX =      1.0000
 Hartree-type preconditioning will be used
 using additional bands           12
 real space projection scheme for non local part
 use partial core corrections
 calculate Harris-corrections to forces   (improved forces if not selfconsistent)
 use gradient corrections 
 use of overlap-Matrix (Vanderbilt PP)
 Fermi weights with tetrahedron method with Bloechl corrections


--------------------------------------------------------------------------------------------------------


  energy-cutoff  :      520.00
  volume of cell :      968.84
      direct lattice vectors                 reciprocal lattice vectors
     6.907777000 -0.000000000  0.000000000     0.144764372 -0.083579742  0.000000000
     3.453888000  5.982310000  0.000000000     0.000000000  0.167159509 -0.000000000
     0.000000000  0.000000000 23.444588000    -0.000000000  0.000000000  0.042653767

  length of vectors
     6.907777000  6.907776433 23.444588000     0.167159495  0.167159509  0.042653767



 k-points in units of 2pi/SCALE and weight: Kpoints from vasprun.xml                
   0.00000000  0.00000000  0.00000000       0.040
   0.02895287 -0.01671595  0.00000000       0.240
   0.05790575 -0.03343190  0.00000000       0.240
   0.05790575  0.00000000  0.00000000       0.240
  -0.05790575  0.06686380  0.00000000       0.240

 k-points in reciprocal lattice and weights: Kpoints from vasprun.xml                
   0.00000000  0.00000000  0.00000000       0.040
   0.20000000  0.00000000  0.00000000       0.240
   0.40000000  0.00000000  0.00000000       0.240
   0.40000000  0.20000000  0.00000000       0.240
  -0.40000000  0.20000000  0.00000000       0.240

 position of ions in fractional coordinates (direct lattice) 
   0.33333300  0.33333300  0.49992500
   0.66666700  0.66666700  0.50007500
   0.00000000  0.00000000  0.44821600
   0.00000000  0.00000000  0.55178400
   0.62635700  0.00042000  0.57375200
   0.00042000  0.37322400  0.57375200
   0.37322400  0.62635700  0.57375200
   0.37364300  0.99958000  0.42624800
   0.99958000  0.62677600  0.42624800
   0.62677600  0.37364300  0.42624800

 position of ions in cartesian coordinates  (Angst):
   3.45388488  1.99410134 11.72053566
   6.90778012  3.98820866 11.72405234
   0.00000000  0.00000000 10.50823946
   0.00000000  0.00000000 12.93634854
   4.32818511  0.00251257 13.45137925
   1.29197516  2.23274167 13.45137925
   4.74151509  3.74706174 13.45137925
   6.03347989  5.97979743  9.99320875
   9.06968984  3.74956833  9.99320875
   5.62014991  2.23524826  9.99320875



--------------------------------------------------------------------------------------------------------


 k-point  1 :   0.0000 0.0000 0.0000  plane waves:   26073
 k-point  2 :   0.2000 0.0000 0.0000  plane waves:   26070
 k-point  3 :   0.4000 0.0000 0.0000  plane waves:   26086
 k-point  4 :   0.4000 0.2000 0.0000  plane waves:   26085
 k-point  5 :  -0.4000 0.2000 0.0000  plane waves:   26115

 maximum and minimum number of plane-waves per node :     26115    26070

 maximum number of plane-waves:     26115
 maximum index in each direction: 
   IXMAX=   13   IYMAX=   12   IZMAX=   43
   IXMIN=  -13   IYMIN=  -13   IZMIN=  -43


 serial   3D FFT for wavefunctions
 parallel 3D FFT for charge:
    minimum data exchange during FFTs selected (reduces bandwidth)


 total amount of memory used by VASP MPI-rank0   169747. kBytes
=======================================================================

   base      :      30000. kBytes
   nonlr-proj:       7947. kBytes
   fftplans  :      20284. kBytes
   grid      :      90201. kBytes
   one-center:        311. kBytes
   wavefun   :      21004. kBytes

     INWAV:  cpu time    0.0000: real time    0.0000
 Broyden mixing: mesh for mixing (old mesh)
   NGX = 25   NGY = 25   NGZ = 87
  (NGX  =108   NGY  =108   NGZ  =360)
  gives a total of  54375 points

 initial charge density was supplied:
 charge density of overlapping atoms calculated
 number of electron      56.0000000 magnetization       6.0000000
 keeping initial charge density in first step


--------------------------------------------------------------------------------------------------------


 Maximum index for non-local projection operator         7247
 Maximum index for augmentation-charges         4376 (set IRDMAX)


--------------------------------------------------------------------------------------------------------


 First call to EWALD:  gamma=   0.179
 Maximum number of real-space cells 4x 4x 1
 Maximum number of reciprocal cells 2x 2x 6

    FEWALD:  cpu time    0.0000: real time    0.0010


--------------------------------------- Iteration      1(   1)  ---------------------------------------


vdW kernel read from vdw_kernel.bindat
  0.0000  0.2424  0.5071  0.7962  1.1119  1.4567  1.8333  2.2446  2.6937  3.1842
  3.7199  4.3049  4.9438  5.6415  6.4036  7.2358  8.1446  9.1372 10.2212 11.4050
 12.6979 14.1099 15.6519 17.3360 19.1751 21.1837 23.3773 25.7729 28.3892 31.2465
 34.3669 37.7748 41.4965 45.5611 50.0000

    POTLOK:  cpu time   68.8680: real time   69.0391
    SETDIJ:  cpu time    0.0480: real time    0.0481
     EDDAV:  cpu time   16.8680: real time   17.0230
 BZINTS: Fermi energy:  6.918215; 56.000000 electrons
         Band energy:  62.979252;  BLOECHL correction: -0.062222
       DOS:  cpu time    0.0040: real time    0.0023
    --------------------------------------------
      LOOP:  cpu time   85.7880: real time   86.1125

 eigenvalue-minimisations  :   800
 total energy-change (2. order) : 0.4025673E+03  (-0.1574074E+04)
 number of electron      56.0000000 magnetization       6.0000000
 augmentation part       56.0000000 magnetization       6.0000000

 Free energy of the ion-electron system (eV)
  ---------------------------------------------------
  alpha Z        PSCENC =        10.43337871
  Ewald energy   TEWEN  =      5985.89955237
  -Hartree energ DENC   =     -7850.85503700
  -exchange      EXHF   =         0.00000000
  -V(xc)+E(xc)   XCENC  =      -234.75617248
  PAW double counting   =      1147.23992585     -828.05179630
  entropy T*S    EENTRO =         0.00000000
  eigenvalues    EBANDS =        62.97925241
  atomic energy  EATOM  =      2109.67816268
  Solvation  Ediel_sol  =         0.00000000
  ---------------------------------------------------
  free energy    TOTEN  =       402.56726624 eV

  energy without entropy =      402.56726624  energy(sigma->0) =      402.56726624


--------------------------------------------------------------------------------------------------------




--------------------------------------- Iteration      1(   2)  ---------------------------------------


     EDDAV:  cpu time   20.0720: real time   20.1170
 BZINTS: Fermi energy:  0.267102; 56.000000 electrons
         Band energy:-319.612014;  BLOECHL correction: -0.050861
       DOS:  cpu time    0.0040: real time    0.0024
    --------------------------------------------
      LOOP:  cpu time   20.0760: real time   20.1193

 eigenvalue-minimisations  :   992
 total energy-change (2. order) :-0.3825913E+03  (-0.3649004E+03)
 number of electron      56.0000000 magnetization       6.0000000
 augmentation part       56.0000000 magnetization       6.0000000

 Free energy of the ion-electron system (eV)
  ---------------------------------------------------
  alpha Z        PSCENC =        10.43337871
  Ewald energy   TEWEN  =      5985.89955237
  -Hartree energ DENC   =     -7850.85503700
  -exchange      EXHF   =         0.00000000
  -V(xc)+E(xc)   XCENC  =      -234.75617248
  PAW double counting   =      1147.23992585     -828.05179630
  entropy T*S    EENTRO =         0.00000000
  eigenvalues    EBANDS =      -319.61201356
  atomic energy  EATOM  =      2109.67816268
  Solvation  Ediel_sol  =         0.00000000
  ---------------------------------------------------
  free energy    TOTEN  =        19.97600028 eV

  energy without entropy =       19.97600028  energy(sigma->0) =       19.97600028


--------------------------------------------------------------------------------------------------------




--------------------------------------- Iteration      1(   3)  ---------------------------------------


     EDDAV:  cpu time   26.5640: real time   26.8782
 BZINTS: Fermi energy: -1.599159; 56.000000 electrons
         Band energy:-381.680467;  BLOECHL correction: -0.020733
       DOS:  cpu time    0.0040: real time    0.0046
    --------------------------------------------
      LOOP:  cpu time   26.5680: real time   26.8828

 eigenvalue-minimisations  :  1080
 total energy-change (2. order) :-0.6206845E+02  (-0.6074025E+02)
 number of electron      56.0000000 magnetization       6.0000000
 augmentation part       56.0000000 magnetization       6.0000000

 Free energy of the ion-electron system (eV)
  ---------------------------------------------------
  alpha Z        PSCENC =        10.43337871
  Ewald energy   TEWEN  =      5985.89955237
  -Hartree energ DENC   =     -7850.85503700
  -exchange      EXHF   =         0.00000000
  -V(xc)+E(xc)   XCENC  =      -234.75617248
  PAW double counting   =      1147.23992585     -828.05179630
  entropy T*S    EENTRO =         0.00000000
  eigenvalues    EBANDS =      -381.68046743
  atomic energy  EATOM  =      2109.67816268
  Solvation  Ediel_sol  =         0.00000000
  ---------------------------------------------------
  free energy    TOTEN  =       -42.09245360 eV

  energy without entropy =      -42.09245360  energy(sigma->0) =      -42.09245360


--------------------------------------------------------------------------------------------------------




--------------------------------------- Iteration      1(   4)  ---------------------------------------


     EDDAV:  cpu time   30.5880: real time   30.9563
 BZINTS: Fermi energy: -1.667799; 56.000000 electrons
         Band energy:-385.270976;  BLOECHL correction: -0.017081
       DOS:  cpu time    0.0040: real time    0.0044
    --------------------------------------------
      LOOP:  cpu time   30.5920: real time   30.9607

 eigenvalue-minimisations  :  1216
 total energy-change (2. order) :-0.3590508E+01  (-0.3542112E+01)
 number of electron      56.0000000 magnetization       6.0000000
 augmentation part       56.0000000 magnetization       6.0000000

 Free energy of the ion-electron system (eV)
  ---------------------------------------------------
  alpha Z        PSCENC =        10.43337871
  Ewald energy   TEWEN  =      5985.89955237
  -Hartree energ DENC   =     -7850.85503700
  -exchange      EXHF   =         0.00000000
  -V(xc)+E(xc)   XCENC  =      -234.75617248
  PAW double counting   =      1147.23992585     -828.05179630
  entropy T*S    EENTRO =         0.00000000
  eigenvalues    EBANDS =      -385.27097583
  atomic energy  EATOM  =      2109.67816268
  Solvation  Ediel_sol  =         0.00000000
  ---------------------------------------------------
  free energy    TOTEN  =       -45.68296200 eV

  energy without entropy =      -45.68296200  energy(sigma->0) =      -45.68296200


--------------------------------------------------------------------------------------------------------




--------------------------------------- Iteration      1(   5)  ---------------------------------------


     EDDAV:  cpu time   27.6080: real time   28.4284
 BZINTS: Fermi energy: -1.671190; 56.000000 electrons
         Band energy:-385.378928;  BLOECHL correction: -0.017268
       DOS:  cpu time    0.0040: real time    0.0047
    CHARGE:  cpu time    2.0920: real time    2.1114
    MIXING:  cpu time    0.0480: real time    0.0488
    --------------------------------------------
      LOOP:  cpu time   29.7520: real time   30.5933

 eigenvalue-minimisations  :  1200
 total energy-change (2. order) :-0.1079522E+00  (-0.1070666E+00)
 number of electron      56.0000003 magnetization       5.9027095
 augmentation part       -4.1917306 magnetization       3.8093966

 Broyden mixing:
  rms(total) = 0.12889E+01    rms(broyden)= 0.12889E+01
  rms(prec ) = 0.14181E+01
  weight for this iteration     100.00

 Free energy of the ion-electron system (eV)
  ---------------------------------------------------
  alpha Z        PSCENC =        10.43337871
  Ewald energy   TEWEN  =      5985.89955237
  -Hartree energ DENC   =     -7850.85503700
  -exchange      EXHF   =         0.00000000
  -V(xc)+E(xc)   XCENC  =      -234.75617248
  PAW double counting   =      1147.23992585     -828.05179630
  entropy T*S    EENTRO =         0.00000000
  eigenvalues    EBANDS =      -385.37892800
  atomic energy  EATOM  =      2109.67816268
  Solvation  Ediel_sol  =         0.00000000
  ---------------------------------------------------
  free energy    TOTEN  =       -45.79091417 eV

  energy without entropy =      -45.79091417  energy(sigma->0) =      -45.79091417


--------------------------------------------------------------------------------------------------------




--------------------------------------- Iteration      1(   6)  ---------------------------------------


    POTLOK:  cpu time  109.0960: real time  109.8594
    SETDIJ:  cpu time    0.1120: real time    0.1111
     EDDAV:  cpu time   45.2200: real time   47.5009
 BZINTS: Fermi energy: -3.722267; 56.000000 electrons
         Band energy:-429.273719;  BLOECHL correction: -0.020144
       DOS:  cpu time    0.0080: real time    0.0060
    CHARGE:  cpu time    3.1400: real time    3.1455
    MIXING:  cpu time    0.0600: real time    0.0615
    --------------------------------------------
      LOOP:  cpu time  157.6360: real time  160.6845

 eigenvalue-minimisations  :  1152
 total energy-change (2. order) :-0.1119658E+02  (-0.6948534E+01)
 number of electron      56.0000000 magnetization       5.8094848
 augmentation part        4.7398695 magnetization       4.6827685

 Broyden mixing:
  rms(total) = 0.42085E+01    rms(broyden)= 0.42084E+01
  rms(prec ) = 0.47303E+01
  weight for this iteration     100.00

 eigenvalues of (default mixing * dielectric matrix)
  average eigenvalue GAMMA=   0.2080
  0.2080

 Free energy of the ion-electron system (eV)
  ---------------------------------------------------
  alpha Z        PSCENC =        10.43337871
  Ewald energy   TEWEN  =      5985.89955237
  -Hartree energ DENC   =     -7823.13721638
  -exchange      EXHF   =         0.00000000
  -V(xc)+E(xc)   XCENC  =      -234.19018470
  PAW double counting   =      1121.01482303     -797.41229231
  entropy T*S    EENTRO =         0.00000000
  eigenvalues    EBANDS =      -429.27371908
  atomic energy  EATOM  =      2109.67816268
  Solvation  Ediel_sol  =         0.00000000
  ---------------------------------------------------
  free energy    TOTEN  =       -56.98749567 eV

  energy without entropy =      -56.98749567  energy(sigma->0) =      -56.98749567


--------------------------------------------------------------------------------------------------------




--------------------------------------- Iteration      1(   7)  ---------------------------------------


    POTLOK:  cpu time  108.5120: real time  109.3299
    SETDIJ:  cpu time    0.0600: real time    0.0605
     EDDAV:  cpu time   27.1160: real time   27.2467
 BZINTS: Fermi energy: -2.197488; 56.000000 electrons
         Band energy:-382.046788;  BLOECHL correction:  0.000000
       DOS:  cpu time    0.0040: real time    0.0018
    CHARGE:  cpu time    1.9840: real time    2.0639
    MIXING:  cpu time    0.0520: real time    0.0533
    --------------------------------------------
      LOOP:  cpu time  137.7280: real time  138.7562

 eigenvalue-minimisations  :  1136
 total energy-change (2. order) : 0.1398841E+02  (-0.7485460E+01)
 number of electron      56.0000002 magnetization       5.7994529
 augmentation part       -2.8844833 magnetization       3.4449938

 Broyden mixing:
  rms(total) = 0.91577E+00    rms(broyden)= 0.91570E+00
  rms(prec ) = 0.94450E+00
  weight for this iteration     100.00

 eigenvalues of (default mixing * dielectric matrix)
  average eigenvalue GAMMA=   0.2951
  0.4238  0.1665

 Free energy of the ion-electron system (eV)
  ---------------------------------------------------
  alpha Z        PSCENC =        10.43337871
  Ewald energy   TEWEN  =      5985.89955237
  -Hartree energ DENC   =     -7850.95637530
  -exchange      EXHF   =         0.00000000
  -V(xc)+E(xc)   XCENC  =      -234.84161152
  PAW double counting   =      1176.31124157     -857.47664616
  entropy T*S    EENTRO =         0.00000000
  eigenvalues    EBANDS =      -382.04678761
  atomic energy  EATOM  =      2109.67816268
  Solvation  Ediel_sol  =         0.00000000
  ---------------------------------------------------
  free energy    TOTEN  =       -42.99908525 eV

  energy without entropy =      -42.99908525  energy(sigma->0) =      -42.99908525


--------------------------------------------------------------------------------------------------------




--------------------------------------- Iteration      1(   8)  ---------------------------------------


    POTLOK:  cpu time  104.7800: real time  105.7154
    SETDIJ:  cpu time    0.0680: real time    0.0710
     EDDAV:  cpu time   22.5840: real time   22.8296
 BZINTS: Fermi energy: -2.263116; 56.000000 electrons
         Band energy:-382.577410;  BLOECHL correction:  0.000000
       DOS:  cpu time    0.0000: real time    0.0010
    CHARGE:  cpu time    1.9560: real time    1.9722
    MIXING:  cpu time    0.0520: real time    0.0544
    --------------------------------------------
      LOOP:  cpu time  129.4400: real time  130.6434

 eigenvalue-minimisations  :   904
 total energy-change (2. order) :-0.1197751E+01  (-0.7568116E+00)
 number of electron      56.0000002 magnetization       5.7580629
 augmentation part       -3.2575222 magnetization       3.3339048

 Broyden mixing:
  rms(total) = 0.73224E+00    rms(broyden)= 0.73224E+00
  rms(prec ) = 0.78774E+00
  weight for this iteration     100.00

 eigenvalues of (default mixing * dielectric matrix)
  average eigenvalue GAMMA=   0.5903
  1.0581  0.2040  0.5088

 Free energy of the ion-electron system (eV)
  ---------------------------------------------------
  alpha Z        PSCENC =        10.43337871
  Ewald energy   TEWEN  =      5985.89955237
  -Hartree energ DENC   =     -7851.90475630
  -exchange      EXHF   =         0.00000000
  -V(xc)+E(xc)   XCENC  =      -234.21280186
  PAW double counting   =      1184.20336318     -865.71632542
  entropy T*S    EENTRO =         0.00000000
  eigenvalues    EBANDS =      -382.57741010
  atomic energy  EATOM  =      2109.67816268
  Solvation  Ediel_sol  =         0.00000000
  ---------------------------------------------------
  free energy    TOTEN  =       -44.19683674 eV

  energy without entropy =      -44.19683674  energy(sigma->0) =      -44.19683674


--------------------------------------------------------------------------------------------------------




--------------------------------------- Iteration      1(   9)  ---------------------------------------


    POTLOK:  cpu time  104.3000: real time  105.1862
    SETDIJ:  cpu time    0.0640: real time    0.0637
     EDDAV:  cpu time   27.6160: real time   27.9004
 BZINTS: Fermi energy: -2.425828; 56.000000 electrons
         Band energy:-379.393836;  BLOECHL correction:  0.000000
       DOS:  cpu time    0.0000: real time    0.0023
    CHARGE:  cpu time    2.0040: real time    2.0300
    MIXING:  cpu time    0.0480: real time    0.0484
    --------------------------------------------
      LOOP:  cpu time  134.0320: real time  135.2311

 eigenvalue-minimisations  :  1184
 total energy-change (2. order) : 0.3784981E+00  (-0.1100401E+00)
 number of electron      56.0000002 magnetization       5.7506986
 augmentation part       -2.7564654 magnetization       3.6391257

 Broyden mixing:
  rms(total) = 0.42291E+00    rms(broyden)= 0.42291E+00
  rms(prec ) = 0.44449E+00
  weight for this iteration     100.00

 eigenvalues of (default mixing * dielectric matrix)
  average eigenvalue GAMMA=   0.8606
  1.8463  0.9770  0.2011  0.4181

 Free energy of the ion-electron system (eV)
  ---------------------------------------------------
  alpha Z        PSCENC =        10.43337871
  Ewald energy   TEWEN  =      5985.89955237
  -Hartree energ DENC   =     -7855.20971770
  -exchange      EXHF   =         0.00000000
  -V(xc)+E(xc)   XCENC  =      -233.23669027
  PAW double counting   =      1205.87459512     -887.86378326
  entropy T*S    EENTRO =         0.00000000
  eigenvalues    EBANDS =      -379.39383633
  atomic energy  EATOM  =      2109.67816268
  Solvation  Ediel_sol  =         0.00000000
  ---------------------------------------------------
  free energy    TOTEN  =       -43.81833867 eV

  energy without entropy =      -43.81833867  energy(sigma->0) =      -43.81833867


--------------------------------------------------------------------------------------------------------




--------------------------------------- Iteration      1(  10)  ---------------------------------------


    POTLOK:  cpu time  101.4680: real time  102.3480
    SETDIJ:  cpu time    0.0600: real time    0.0610
     EDDAV:  cpu time   28.5000: real time   28.7294
 BZINTS: Fermi energy: -2.363147; 56.000000 electrons
         Band energy:-377.788182;  BLOECHL correction:  0.000000
       DOS:  cpu time    0.0000: real time    0.0023
    CHARGE:  cpu time    2.0320: real time    2.0394
    MIXING:  cpu time    0.0480: real time    0.0495
    --------------------------------------------
      LOOP:  cpu time  132.1080: real time  133.2296

 eigenvalue-minimisations  :  1224
 total energy-change (2. order) : 0.2190981E-01  (-0.4014751E-01)
 number of electron      56.0000002 magnetization       5.7711295
 augmentation part       -2.3867827 magnetization       3.8899240

 Broyden mixing:
  rms(total) = 0.20719E+00    rms(broyden)= 0.20719E+00
  rms(prec ) = 0.21013E+00
  weight for this iteration     100.00

 eigenvalues of (default mixing * dielectric matrix)
  average eigenvalue GAMMA=   0.9398
  1.6933  1.6933  0.2013  0.6474  0.4638

 Free energy of the ion-electron system (eV)
  ---------------------------------------------------
  alpha Z        PSCENC =        10.43337871
  Ewald energy   TEWEN  =      5985.89955237
  -Hartree energ DENC   =     -7857.37990447
  -exchange      EXHF   =         0.00000000
  -V(xc)+E(xc)   XCENC  =      -232.31497663
  PAW double counting   =      1212.39135545     -894.71581452
  entropy T*S    EENTRO =         0.00000000
  eigenvalues    EBANDS =      -377.78818246
  atomic energy  EATOM  =      2109.67816268
  Solvation  Ediel_sol  =         0.00000000
  ---------------------------------------------------
  free energy    TOTEN  =       -43.79642886 eV

  energy without entropy =      -43.79642886  energy(sigma->0) =      -43.79642886


--------------------------------------------------------------------------------------------------------




--------------------------------------- Iteration      1(  11)  ---------------------------------------


    POTLOK:  cpu time  103.5600: real time  104.6072
    SETDIJ:  cpu time    0.0720: real time    0.0717
     EDDAV:  cpu time   27.4960: real time   27.7879
 BZINTS: Fermi energy: -2.373874; 56.000000 electrons
         Band energy:-377.635278;  BLOECHL correction:  0.000000
       DOS:  cpu time    0.0000: real time    0.0018
    CHARGE:  cpu time    1.9680: real time    1.9946
    MIXING:  cpu time    0.0520: real time    0.0521
    --------------------------------------------
      LOOP:  cpu time  133.1480: real time  134.5153

 eigenvalue-minimisations  :  1176
 total energy-change (2. order) :-0.2792480E-01  (-0.3563184E-02)
 number of electron      56.0000002 magnetization       5.8064316
 augmentation part       -2.3547054 magnetization       4.0010028

 Broyden mixing:
  rms(total) = 0.13414E+00    rms(broyden)= 0.13414E+00
  rms(prec ) = 0.13605E+00
  weight for this iteration     100.00

 eigenvalues of (default mixing * dielectric matrix)
  average eigenvalue GAMMA=   1.1249
  2.2317  2.2317  0.2013  0.4433  0.8794  0.7617

 Free energy of the ion-electron system (eV)
  ---------------------------------------------------
  alpha Z        PSCENC =        10.43337871
  Ewald energy   TEWEN  =      5985.89955237
  -Hartree energ DENC   =     -7857.87231506
  -exchange      EXHF   =         0.00000000
  -V(xc)+E(xc)   XCENC  =      -231.93062697
  PAW double counting   =      1210.10744205     -892.50466964
  entropy T*S    EENTRO =         0.00000000
  eigenvalues    EBANDS =      -377.63527780
  atomic energy  EATOM  =      2109.67816268
  Solvation  Ediel_sol  =         0.00000000
  ---------------------------------------------------
  free energy    TOTEN  =       -43.82435366 eV

  energy without entropy =      -43.82435366  energy(sigma->0) =      -43.82435366


--------------------------------------------------------------------------------------------------------




--------------------------------------- Iteration      1(  12)  ---------------------------------------


    POTLOK:  cpu time  102.7360: real time  103.7091
    SETDIJ:  cpu time    0.0680: real time    0.0689
     EDDAV:  cpu time   28.4800: real time   28.8378
 BZINTS: Fermi energy: -2.364369; 56.000000 electrons
         Band energy:-377.399621;  BLOECHL correction:  0.000000
       DOS:  cpu time    0.0040: real time    0.0024
    CHARGE:  cpu time    1.9760: real time    1.9814
    MIXING:  cpu time    0.0640: real time    0.0641
    --------------------------------------------
      LOOP:  cpu time  133.3280: real time  134.6637

 eigenvalue-minimisations  :  1232
 total energy-change (2. order) :-0.7227603E-02  (-0.1318184E-02)
 number of electron      56.0000002 magnetization       5.8384989
 augmentation part       -2.3369370 magnetization       4.0919245

 Broyden mixing:
  rms(total) = 0.45279E-01    rms(broyden)= 0.45279E-01
  rms(prec ) = 0.46905E-01
  weight for this iteration     100.00

 eigenvalues of (default mixing * dielectric matrix)
  average eigenvalue GAMMA=   1.1677
  2.3785  2.3785  1.2430  0.2013  0.4447  0.8218  0.7064

 Free energy of the ion-electron system (eV)
  ---------------------------------------------------
  alpha Z        PSCENC =        10.43337871
  Ewald energy   TEWEN  =      5985.89955237
  -Hartree energ DENC   =     -7858.43797944
  -exchange      EXHF   =         0.00000000
  -V(xc)+E(xc)   XCENC  =      -231.47994630
  PAW double counting   =      1208.19053954     -890.71566749
  entropy T*S    EENTRO =         0.00000000
  eigenvalues    EBANDS =      -377.39962134
  atomic energy  EATOM  =      2109.67816268
  Solvation  Ediel_sol  =         0.00000000
  ---------------------------------------------------
  free energy    TOTEN  =       -43.83158126 eV

  energy without entropy =      -43.83158126  energy(sigma->0) =      -43.83158126


--------------------------------------------------------------------------------------------------------




--------------------------------------- Iteration      1(  13)  ---------------------------------------


    POTLOK:  cpu time  102.8640: real time  103.4899
    SETDIJ:  cpu time    0.0640: real time    0.0630
     EDDAV:  cpu time   29.3840: real time   29.5662
 BZINTS: Fermi energy: -2.320987; 56.000000 electrons
         Band energy:-377.305280;  BLOECHL correction:  0.000000
       DOS:  cpu time    0.0000: real time    0.0012
    CHARGE:  cpu time    2.0400: real time    2.0407
    MIXING:  cpu time    0.0520: real time    0.0522
    --------------------------------------------
      LOOP:  cpu time  134.4040: real time  135.2133

 eigenvalue-minimisations  :  1264
 total energy-change (2. order) : 0.8375715E-03  (-0.4026654E-03)
 number of electron      56.0000002 magnetization       5.8698224
 augmentation part       -2.3402365 magnetization       4.1417274

 Broyden mixing:
  rms(total) = 0.26206E-01    rms(broyden)= 0.26206E-01
  rms(prec ) = 0.27802E-01
  weight for this iteration     100.00

 eigenvalues of (default mixing * dielectric matrix)
  average eigenvalue GAMMA=   1.2194
  2.5978  2.5978  1.5618  0.2013  0.9673  0.4445  0.7306  0.6539

 Free energy of the ion-electron system (eV)
  ---------------------------------------------------
  alpha Z        PSCENC =        10.43337871
  Ewald energy   TEWEN  =      5985.89955237
  -Hartree energ DENC   =     -7858.63256159
  -exchange      EXHF   =         0.00000000
  -V(xc)+E(xc)   XCENC  =      -231.35743653
  PAW double counting   =      1207.96028487     -890.50684371
  entropy T*S    EENTRO =         0.00000000
  eigenvalues    EBANDS =      -377.30528049
  atomic energy  EATOM  =      2109.67816268
  Solvation  Ediel_sol  =         0.00000000
  ---------------------------------------------------
  free energy    TOTEN  =       -43.83074369 eV

  energy without entropy =      -43.83074369  energy(sigma->0) =      -43.83074369


--------------------------------------------------------------------------------------------------------




--------------------------------------- Iteration      1(  14)  ---------------------------------------


    POTLOK:  cpu time  103.8080: real time  104.5970
    SETDIJ:  cpu time    0.0680: real time    0.0699
     EDDAV:  cpu time   24.2560: real time   24.6546
 BZINTS: Fermi energy: -2.364581; 56.000000 electrons
         Band energy:-377.078800;  BLOECHL correction:  0.000000
       DOS:  cpu time    0.0000: real time    0.0014
    CHARGE:  cpu time    2.0120: real time    2.0599
    MIXING:  cpu time    0.0920: real time    0.0979
    --------------------------------------------
      LOOP:  cpu time  130.2360: real time  131.4807

 eigenvalue-minimisations  :  1008
 total energy-change (2. order) : 0.3659342E-03  (-0.1087807E-03)
 number of electron      56.0000002 magnetization       5.8974611
 augmentation part       -2.3371153 magnetization       4.1778826

 Broyden mixing:
  rms(total) = 0.13030E-01    rms(broyden)= 0.13030E-01
  rms(prec ) = 0.14849E-01
  weight for this iteration     100.00

 eigenvalues of (default mixing * dielectric matrix)
  average eigenvalue GAMMA=   1.2663
  2.6845  2.6845  2.0497  0.2013  0.9847  0.9847  0.4445  0.7204  0.6421

 Free energy of the ion-electron system (eV)
  ---------------------------------------------------
  alpha Z        PSCENC =        10.43337871
  Ewald energy   TEWEN  =      5985.89955237
  -Hartree energ DENC   =     -7858.90947620
  -exchange      EXHF   =         0.00000000
  -V(xc)+E(xc)   XCENC  =      -231.28005743
  PAW double counting   =      1207.64354697     -890.21668436
  entropy T*S    EENTRO =         0.00000000
  eigenvalues    EBANDS =      -377.07880049
  atomic energy  EATOM  =      2109.67816268
  Solvation  Ediel_sol  =         0.00000000
  ---------------------------------------------------
  free energy    TOTEN  =       -43.83037775 eV

  energy without entropy =      -43.83037775  energy(sigma->0) =      -43.83037775


--------------------------------------------------------------------------------------------------------




--------------------------------------- Iteration      1(  15)  ---------------------------------------


    POTLOK:  cpu time  101.4560: real time  102.5268
    SETDIJ:  cpu time    0.0720: real time    0.0709
     EDDAV:  cpu time   22.8280: real time   23.1163
 BZINTS: Fermi energy: -2.353805; 56.000000 electrons
         Band energy:-376.684031;  BLOECHL correction:  0.000000
       DOS:  cpu time    0.0040: real time    0.0018
    CHARGE:  cpu time    2.0080: real time    2.0108
    MIXING:  cpu time    0.0880: real time    0.0872
    --------------------------------------------
      LOOP:  cpu time  126.4560: real time  127.8139

 eigenvalue-minimisations  :   920
 total energy-change (2. order) :-0.4573035E-02  (-0.1028489E-03)
 number of electron      56.0000002 magnetization       5.9395934
 augmentation part       -2.3314437 magnetization       4.2266236

 Broyden mixing:
  rms(total) = 0.82634E-02    rms(broyden)= 0.82634E-02
  rms(prec ) = 0.10272E-01
  weight for this iteration     100.00

 eigenvalues of (default mixing * dielectric matrix)
  average eigenvalue GAMMA=   1.3184
  2.9572  2.9572  1.7625  1.7625  0.2013  0.4445  0.8802  0.8802  0.6987  0.6403

 Free energy of the ion-electron system (eV)
  ---------------------------------------------------
  alpha Z        PSCENC =        10.43337871
  Ewald energy   TEWEN  =      5985.89955237
  -Hartree energ DENC   =     -7859.33386276
  -exchange      EXHF   =         0.00000000
  -V(xc)+E(xc)   XCENC  =      -231.24521976
  PAW double counting   =      1207.77960861     -890.36253973
  entropy T*S    EENTRO =         0.00000000
  eigenvalues    EBANDS =      -376.68403092
  atomic energy  EATOM  =      2109.67816268
  Solvation  Ediel_sol  =         0.00000000
  ---------------------------------------------------
  free energy    TOTEN  =       -43.83495079 eV

  energy without entropy =      -43.83495079  energy(sigma->0) =      -43.83495079


--------------------------------------------------------------------------------------------------------




--------------------------------------- Iteration      1(  16)  ---------------------------------------


    POTLOK:  cpu time  104.5400: real time  105.4107
    SETDIJ:  cpu time    0.0680: real time    0.0684
     EDDAV:  cpu time   21.9160: real time   21.9780
 BZINTS: Fermi energy: -2.334497; 56.000000 electrons
         Band energy:-375.845397;  BLOECHL correction:  0.000000
       DOS:  cpu time    0.0000: real time    0.0019
    CHARGE:  cpu time    1.9320: real time    1.9870
    MIXING:  cpu time    0.0720: real time    0.0707
    --------------------------------------------
      LOOP:  cpu time  128.5280: real time  129.5167

 eigenvalue-minimisations  :   864
 total energy-change (2. order) :-0.9121965E-03  (-0.6360800E-04)
 number of electron      56.0000002 magnetization       5.9901463
 augmentation part       -2.3258226 magnetization       4.2803540

 Broyden mixing:
  rms(total) = 0.55941E-02    rms(broyden)= 0.55940E-02
  rms(prec ) = 0.78446E-02
  weight for this iteration     100.00

 eigenvalues of (default mixing * dielectric matrix)
  average eigenvalue GAMMA=   1.5495
  5.0081  2.9570  2.1602  2.1602  0.2013  1.0200  1.0200  0.4445  0.7501  0.7009
  0.6223

 Free energy of the ion-electron system (eV)
  ---------------------------------------------------
  alpha Z        PSCENC =        10.43337871
  Ewald energy   TEWEN  =      5985.89955237
  -Hartree energ DENC   =     -7860.18204920
  -exchange      EXHF   =         0.00000000
  -V(xc)+E(xc)   XCENC  =      -231.23211426
  PAW double counting   =      1207.90049151     -890.48788758
  entropy T*S    EENTRO =         0.00000000
  eigenvalues    EBANDS =      -375.84539722
  atomic energy  EATOM  =      2109.67816268
  Solvation  Ediel_sol  =         0.00000000
  ---------------------------------------------------
  free energy    TOTEN  =       -43.83586298 eV

  energy without entropy =      -43.83586298  energy(sigma->0) =      -43.83586298


--------------------------------------------------------------------------------------------------------




--------------------------------------- Iteration      1(  17)  ---------------------------------------


    POTLOK:  cpu time  102.3280: real time  102.8358
    SETDIJ:  cpu time    0.0520: real time    0.0544
     EDDAV:  cpu time   20.7800: real time   21.0518
 BZINTS: Fermi energy: -2.285092; 56.000000 electrons
         Band energy:-374.630096;  BLOECHL correction:  0.000000
       DOS:  cpu time    0.0000: real time    0.0018
    CHARGE:  cpu time    1.9800: real time    1.9847
    MIXING:  cpu time    0.0640: real time    0.0629
    --------------------------------------------
      LOOP:  cpu time  125.2040: real time  125.9914

 eigenvalue-minimisations  :   816
 total energy-change (2. order) : 0.1710391E-02  (-0.2124820E-03)
 number of electron      56.0000002 magnetization       6.0047454
 augmentation part       -2.3233376 magnetization       4.2958881

 Broyden mixing:
  rms(total) = 0.36176E-02    rms(broyden)= 0.36176E-02
  rms(prec ) = 0.58771E-02
  weight for this iteration     100.00

 eigenvalues of (default mixing * dielectric matrix)
  average eigenvalue GAMMA=   1.6908
  7.2033  2.8986  2.2114  2.2114  0.2013  1.2524  0.4445  0.9136  0.9136  0.7498
  0.6704  0.6196

 Free energy of the ion-electron system (eV)
  ---------------------------------------------------
  alpha Z        PSCENC =        10.43337871
  Ewald energy   TEWEN  =      5985.89955237
  -Hartree energ DENC   =     -7861.40219105
  -exchange      EXHF   =         0.00000000
  -V(xc)+E(xc)   XCENC  =      -231.22428005
  PAW double counting   =      1208.10531656     -890.69399562
  entropy T*S    EENTRO =         0.00000000
  eigenvalues    EBANDS =      -374.63009620
  atomic energy  EATOM  =      2109.67816268
  Solvation  Ediel_sol  =         0.00000000
  ---------------------------------------------------
  free energy    TOTEN  =       -43.83415259 eV

  energy without entropy =      -43.83415259  energy(sigma->0) =      -43.83415259


--------------------------------------------------------------------------------------------------------




--------------------------------------- Iteration      1(  18)  ---------------------------------------


    POTLOK:  cpu time  102.1400: real time  102.9681
    SETDIJ:  cpu time    0.0560: real time    0.0580
     EDDAV:  cpu time   20.6640: real time   20.8172
 BZINTS: Fermi energy: -2.293078; 56.000000 electrons
         Band energy:-374.153061;  BLOECHL correction:  0.000000
       DOS:  cpu time    0.0040: real time    0.0029
    CHARGE:  cpu time    2.0800: real time    2.0859
    MIXING:  cpu time    0.0600: real time    0.0608
    --------------------------------------------
      LOOP:  cpu time  125.0040: real time  125.9928

 eigenvalue-minimisations  :   808
 total energy-change (2. order) : 0.2663426E-03  (-0.2992266E-04)
 number of electron      56.0000002 magnetization       6.0093510
 augmentation part       -2.3245797 magnetization       4.3003445

 Broyden mixing:
  rms(total) = 0.29945E-02    rms(broyden)= 0.29945E-02
  rms(prec ) = 0.50726E-02
  weight for this iteration     100.00

 eigenvalues of (default mixing * dielectric matrix)
  average eigenvalue GAMMA=   1.7557
  8.1588  2.9971  2.2508  1.9597  1.9597  0.2013  1.0047  1.0047  0.4445  0.8169
  0.7465  0.6493  0.6300

 Free energy of the ion-electron system (eV)
  ---------------------------------------------------
  alpha Z        PSCENC =        10.43337871
  Ewald energy   TEWEN  =      5985.89955237
  -Hartree energ DENC   =     -7861.88729111
  -exchange      EXHF   =         0.00000000
  -V(xc)+E(xc)   XCENC  =      -231.21900540
  PAW double counting   =      1208.06073111     -890.64635312
  entropy T*S    EENTRO =         0.00000000
  eigenvalues    EBANDS =      -374.15306149
  atomic energy  EATOM  =      2109.67816268
  Solvation  Ediel_sol  =         0.00000000
  ---------------------------------------------------
  free energy    TOTEN  =       -43.83388625 eV

  energy without entropy =      -43.83388625  energy(sigma->0) =      -43.83388625


--------------------------------------------------------------------------------------------------------




--------------------------------------- Iteration      1(  19)  ---------------------------------------


    POTLOK:  cpu time  101.4800: real time  102.1271
    SETDIJ:  cpu time    0.0600: real time    0.0609
     EDDAV:  cpu time   19.1200: real time   19.2627
 BZINTS: Fermi energy: -2.267465; 56.000000 electrons
         Band energy:-373.770767;  BLOECHL correction:  0.000000
       DOS:  cpu time    0.0040: real time    0.0020
    CHARGE:  cpu time    1.9600: real time    1.9624
    MIXING:  cpu time    0.0640: real time    0.0647
    --------------------------------------------
      LOOP:  cpu time  122.6880: real time  123.4799

 eigenvalue-minimisations  :   736
 total energy-change (2. order) :-0.3440352E-03  (-0.2302061E-04)
 number of electron      56.0000002 magnetization       6.0106626
 augmentation part       -2.3265671 magnetization       4.3008420

 Broyden mixing:
  rms(total) = 0.18177E-02    rms(broyden)= 0.18177E-02
  rms(prec ) = 0.40150E-02
  weight for this iteration     100.00

 eigenvalues of (default mixing * dielectric matrix)
  average eigenvalue GAMMA=   1.8269
  9.0952  3.1525  2.6317  2.1183  2.1183  0.2013  1.0699  1.0699  0.4445  0.8504
  0.8504  0.7072  0.6455  0.6220

 Free energy of the ion-electron system (eV)
  ---------------------------------------------------
  alpha Z        PSCENC =        10.43337871
  Ewald energy   TEWEN  =      5985.89955237
  -Hartree energ DENC   =     -7862.27567273
  -exchange      EXHF   =         0.00000000
  -V(xc)+E(xc)   XCENC  =      -231.21935711
  PAW double counting   =      1207.91639779     -890.49592525
  entropy T*S    EENTRO =         0.00000000
  eigenvalues    EBANDS =      -373.77076674
  atomic energy  EATOM  =      2109.67816268
  Solvation  Ediel_sol  =         0.00000000
  ---------------------------------------------------
  free energy    TOTEN  =       -43.83423029 eV

  energy without entropy =      -43.83423029  energy(sigma->0) =      -43.83423029


--------------------------------------------------------------------------------------------------------




--------------------------------------- Iteration      1(  20)  ---------------------------------------


    POTLOK:  cpu time  101.9480: real time  102.2953
    SETDIJ:  cpu time    0.0720: real time    0.0717
     EDDAV:  cpu time   19.7320: real time   19.8685
 BZINTS: Fermi energy: -2.281298; 56.000000 electrons
         Band energy:-373.411259;  BLOECHL correction:  0.000000
       DOS:  cpu time    0.0000: real time    0.0026
    CHARGE:  cpu time    2.0320: real time    2.0544
    MIXING:  cpu time    0.0640: real time    0.0646
    --------------------------------------------
      LOOP:  cpu time  123.8480: real time  124.3571

 eigenvalue-minimisations  :   760
 total energy-change (2. order) :-0.1087561E-03  (-0.9604765E-05)
 number of electron      56.0000002 magnetization       6.0095820
 augmentation part       -2.3270287 magnetization       4.2994728

 Broyden mixing:
  rms(total) = 0.15553E-02    rms(broyden)= 0.15553E-02
  rms(prec ) = 0.35736E-02
  weight for this iteration     100.00

 eigenvalues of (default mixing * dielectric matrix)
  average eigenvalue GAMMA=   1.7742
  9.2110  3.2062  2.5491  2.1146  2.1146  0.2013  1.2190  1.0064  1.0064  0.4445
  0.7996  0.7996  0.6891  0.6258  0.6258

 Free energy of the ion-electron system (eV)
  ---------------------------------------------------
  alpha Z        PSCENC =        10.43337871
  Ewald energy   TEWEN  =      5985.89955237
  -Hartree energ DENC   =     -7862.63987971
  -exchange      EXHF   =         0.00000000
  -V(xc)+E(xc)   XCENC  =      -231.21834234
  PAW double counting   =      1207.80758837     -890.38354037
  entropy T*S    EENTRO =         0.00000000
  eigenvalues    EBANDS =      -373.41125876
  atomic energy  EATOM  =      2109.67816268
  Solvation  Ediel_sol  =         0.00000000
  ---------------------------------------------------
  free energy    TOTEN  =       -43.83433904 eV

  energy without entropy =      -43.83433904  energy(sigma->0) =      -43.83433904


--------------------------------------------------------------------------------------------------------




--------------------------------------- Iteration      1(  21)  ---------------------------------------


    POTLOK:  cpu time  106.0400: real time  106.5568
    SETDIJ:  cpu time    0.0720: real time    0.0691
     EDDAV:  cpu time   19.5080: real time   19.7009
 BZINTS: Fermi energy: -2.262724; 56.000000 electrons
         Band energy:-372.890020;  BLOECHL correction:  0.000000
       DOS:  cpu time    0.0000: real time    0.0010
    --------------------------------------------
      LOOP:  cpu time  125.6200: real time  126.3278

 eigenvalue-minimisations  :   752
 total energy-change (2. order) :-0.7501798E-04  (-0.1984227E-04)
 number of electron      56.0000002 magnetization       6.0095820
 augmentation part       -2.3270287 magnetization       4.2994728

 Free energy of the ion-electron system (eV)
  ---------------------------------------------------
  alpha Z        PSCENC =        10.43337871
  Ewald energy   TEWEN  =      5985.89955237
  -Hartree energ DENC   =     -7863.16285809
  -exchange      EXHF   =         0.00000000
  -V(xc)+E(xc)   XCENC  =      -231.21410482
  PAW double counting   =      1207.74726966     -890.32579418
  entropy T*S    EENTRO =         0.00000000
  eigenvalues    EBANDS =      -372.89002039
  atomic energy  EATOM  =      2109.67816268
  Solvation  Ediel_sol  =         0.00000000
  ---------------------------------------------------
  free energy    TOTEN  =       -43.83441406 eV

  energy without entropy =      -43.83441406  energy(sigma->0) =      -43.83441406


--------------------------------------------------------------------------------------------------------




 average (electrostatic) potential at core
  the test charge radii are     1.1394  0.9892  1.1897
  (the norm of the test charge is              1.0000)
       1 -50.6908       2 -50.6908       3 -92.2591       4 -92.2591       5 -96.4461
       6 -96.4460       7 -96.4460       8 -96.4461       9 -96.4460      10 -96.4460



 E-fermi :  -2.2627     XC(G=0):  -3.6109     alpha+bet : -3.1062


 spin component 1

 k-point     1 :       0.0000    0.0000    0.0000
  band No.  band energies     occupation 
      1     -14.4684      1.00000
      2     -13.6437      1.00000
      3     -12.7111      1.00000
      4     -12.7111      1.00000
      5     -12.6418      1.00000
      6     -12.6418      1.00000
      7     -10.2610      1.00000
      8      -8.2955      1.00000
      9      -6.6498      1.00000
     10      -6.5721      1.00000
     11      -6.5721      1.00000
     12      -6.4638      1.00000
     13      -6.1751      1.00000
     14      -6.1751      1.00000
     15      -5.3765      1.00000
     16      -4.5488      1.00000
     17      -4.5488      1.00000
     18      -4.2512      1.00000
     19      -4.2512      1.00000
     20      -4.1243      1.00000
     21      -3.5740      1.00000
     22      -3.5740      1.00000
     23      -3.5493      1.00000
     24      -3.2972      1.00000
     25      -3.2972      1.00000
     26      -3.2835      1.00000
     27      -3.2144      1.00000
     28      -3.2144      1.00000
     29      -2.9343      1.00000
     30      -2.2903      1.00000
     31      -2.2902      1.00000
     32      -1.2369      0.00000
     33      -1.2369      0.00000
     34      -0.5408      0.00000
     35      -0.5408      0.00000
     36      -0.4431      0.00000
     37      -0.3539      0.00000
     38       0.8928      0.00000
     39       0.8928      0.00000
     40       1.6893      0.00000

 k-point     2 :       0.2000    0.0000    0.0000
  band No.  band energies     occupation 
      1     -14.3432      1.00000
      2     -13.5506      1.00000
      3     -12.9252      1.00000
      4     -12.8015      1.00000
      5     -12.7272      1.00000
      6     -12.6908      1.00000
      7     -10.1414      1.00000
      8      -8.3752      1.00000
      9      -6.7915      1.00000
     10      -6.5694      1.00000
     11      -6.3912      1.00000
     12      -6.1327      1.00000
     13      -5.7706      1.00000
     14      -5.6460      1.00000
     15      -5.1632      1.00000
     16      -4.7011      1.00000
     17      -4.6929      1.00000
     18      -4.5385      1.00000
     19      -4.1190      1.00000
     20      -4.0106      1.00000
     21      -3.9049      1.00000
     22      -3.8806      1.00000
     23      -3.4599      1.00000
     24      -3.4469      1.00000
     25      -3.3693      1.00000
     26      -3.2818      1.00000
     27      -3.1856      1.00000
     28      -3.1402      1.00000
     29      -3.0849      1.00000
     30      -2.7208      1.00000
     31      -2.5143      1.00000
     32      -1.3998      0.00000
     33      -1.1369      0.00000
     34      -1.0818      0.00000
     35      -0.7923      0.00000
     36       0.0215      0.00000
     37       0.2016      0.00000
     38       0.9093      0.00000
     39       0.9595      0.00000
     40       1.6663      0.00000

 k-point     3 :       0.4000    0.0000    0.0000
  band No.  band energies     occupation 
      1     -13.9937      1.00000
      2     -13.4314      1.00000
      3     -13.3060      1.00000
      4     -12.9538      1.00000
      5     -12.8654      1.00000
      6     -12.8286      1.00000
      7      -9.9574      1.00000
      8      -8.4354      1.00000
      9      -6.6229      1.00000
     10      -6.4008      1.00000
     11      -5.9918      1.00000
     12      -5.5479      1.00000
     13      -5.2194      1.00000
     14      -5.1555      1.00000
     15      -5.1362      1.00000
     16      -4.9944      1.00000
     17      -4.8013      1.00000
     18      -4.7754      1.00000
     19      -4.3708      1.00000
     20      -4.3027      1.00000
     21      -4.2724      1.00000
     22      -3.7726      1.00000
     23      -3.6306      1.00000
     24      -3.6213      1.00000
     25      -3.4085      1.00000
     26      -3.3291      1.00000
     27      -3.2943      1.00000
     28      -3.0149      1.00000
     29      -2.9634      1.00000
     30      -2.9055      1.00000
     31      -2.8619      1.00000
     32      -1.4358      0.00000
     33      -1.3488      0.00000
     34      -1.0711      0.00000
     35      -0.9305      0.00000
     36      -0.2769      0.00000
     37      -0.1132      0.00000
     38       0.7431      0.00000
     39       1.3420      0.00000
     40       1.4894      0.00000

 k-point     4 :       0.4000    0.2000    0.0000
  band No.  band energies     occupation 
      1     -14.1042      1.00000
      2     -13.3809      1.00000
      3     -13.1508      1.00000
      4     -13.0851      1.00000
      5     -12.8376      1.00000
      6     -12.7674      1.00000
      7      -9.9666      1.00000
      8      -8.4071      1.00000
      9      -6.8113      1.00000
     10      -6.3245      1.00000
     11      -6.1739      1.00000
     12      -5.7509      1.00000
     13      -5.1809      1.00000
     14      -5.1302      1.00000
     15      -5.0405      1.00000
     16      -4.9791      1.00000
     17      -4.8903      1.00000
     18      -4.6621      1.00000
     19      -4.5465      1.00000
     20      -4.2749      1.00000
     21      -4.2071      1.00000
     22      -3.7242      1.00000
     23      -3.5077      1.00000
     24      -3.5065      1.00000
     25      -3.4061      1.00000
     26      -3.2991      1.00000
     27      -3.2476      1.00000
     28      -3.1369      1.00000
[...]
     18      -4.1178      1.00000
     19      -4.0310      1.00000
     20      -3.6163      1.00000
     21      -3.3528      1.00000
     22      -3.1623      1.00000
     23      -3.0440      1.00000
     24      -2.8055      1.00000
     25      -2.6778      1.00000
     26      -1.0605      0.00000
     27      -0.6008      0.00000
     28      -0.4477      0.00000
     29      -0.2852      0.00000
     30      -0.1007      0.00000
     31      -0.0604      0.00000
     32       0.0056      0.00000
     33       0.3691      0.00000
     34       0.4307      0.00000
     35       0.5516      0.00000
     36       0.6249      0.00000
     37       1.0739      0.00000
     38       1.3199      0.00000
     39       1.5689      0.00000
     40       2.1768      0.00000

 k-point     5 :      -0.4000    0.2000    0.0000
  band No.  band energies     occupation 
      1     -13.8012      1.00000
      2     -13.3383      1.00000
      3     -13.1024      1.00000
      4     -13.0097      1.00000
      5     -12.8304      1.00000
      6     -12.6806      1.00000
      7      -9.6480      1.00000
      8      -8.0148      1.00000
      9      -6.2614      1.00000
     10      -5.8712      1.00000
     11      -5.7839      1.00000
     12      -5.3435      1.00000
     13      -5.2591      1.00000
     14      -4.8484      1.00000
     15      -4.4064      1.00000
     16      -4.2040      1.00000
     17      -4.0538      1.00000
     18      -3.9173      1.00000
     19      -3.8473      1.00000
     20      -3.6679      1.00000
     21      -3.3830      1.00000
     22      -3.1114      1.00000
     23      -2.9458      1.00000
     24      -2.9353      1.00000
     25      -2.8324      1.00000
     26      -1.4004      0.00000
     27      -0.6849      0.00000
     28      -0.6431      0.00000
     29      -0.3125      0.00000
     30      -0.0938      0.00000
     31      -0.0604      0.00000
     32      -0.0551      0.00000
     33       0.2473      0.00000
     34       0.2600      0.00000
     35       0.6606      0.00000
     36       0.7178      0.00000
     37       0.9085      0.00000
     38       1.2234      0.00000
     39       1.4418      0.00000
     40       1.9915      0.00000


--------------------------------------------------------------------------------------------------------


 soft charge-density along one line, spin component           1
         0         1         2         3         4         5         6         7         8         9
 total charge-density along one line

 soft charge-density along one line, spin component           2
         0         1         2         3         4         5         6         7         8         9
 total charge-density along one line

 pseudopotential strength for first ion, spin component:           1
 -8.383   0.091  -0.000  -0.000  -0.000   0.572  -0.025   0.000
  0.091  -8.314   0.000   0.000  -0.000  -0.025   0.553  -0.000
 -0.000   0.000  -8.464   0.000   0.000   0.000  -0.000   0.594
 -0.000   0.000   0.000  -8.314  -0.091   0.000  -0.000  -0.000
 -0.000  -0.000   0.000  -0.091  -8.383   0.000   0.000  -0.000
  0.572  -0.025   0.000   0.000   0.000   0.393   0.006  -0.000
 -0.025   0.553  -0.000  -0.000   0.000   0.006   0.398   0.000
  0.000  -0.000   0.594  -0.000  -0.000  -0.000   0.000   0.388
  0.000  -0.000  -0.000   0.553   0.025  -0.000   0.000   0.000
  0.000   0.000  -0.000   0.025   0.572  -0.000  -0.000   0.000
 -0.000  -0.000   0.001  -0.000   0.000  -0.000   0.000  -0.000
  0.000   0.000  -0.000   0.000  -0.000  -0.000  -0.000   0.000
 -0.000   0.000   0.000  -0.000   0.001   0.000  -0.000  -0.000
 -0.000  -0.000   0.000  -0.000  -0.000   0.000   0.000  -0.000
  0.001  -0.000   0.000   0.000  -0.000   0.000   0.000  -0.000
  0.000  -0.000  -0.000   0.000  -0.001  -0.000   0.000   0.000
  0.000   0.000  -0.000   0.000   0.000  -0.000  -0.000   0.000
 -0.001   0.000  -0.000  -0.000   0.000   0.000  -0.000   0.000
 pseudopotential strength for first ion, spin component:           2
 -6.706  -0.168  -0.000   0.000  -0.000   0.098   0.044   0.000
 -0.168  -6.880   0.000   0.000   0.000   0.044   0.144  -0.000
 -0.000   0.000  -6.606   0.000   0.000   0.000  -0.000   0.072
  0.000   0.000   0.000  -6.880   0.168  -0.000  -0.000  -0.000
 -0.000   0.000   0.000   0.168  -6.706   0.000  -0.000  -0.000
  0.098   0.044   0.000  -0.000   0.000   0.523  -0.011  -0.000
  0.044   0.144  -0.000  -0.000  -0.000  -0.011   0.512   0.000
  0.000  -0.000   0.072  -0.000  -0.000  -0.000   0.000   0.529
 -0.000  -0.000  -0.000   0.144  -0.044   0.000   0.000   0.000
  0.000  -0.000  -0.000  -0.044   0.098  -0.000   0.000   0.000
 -0.000  -0.000   0.007  -0.000   0.000  -0.000   0.000  -0.001
  0.000   0.000  -0.001   0.000  -0.000  -0.000  -0.000   0.000
 -0.000   0.000   0.000  -0.000   0.001   0.000  -0.000  -0.000
 -0.000  -0.000   0.000  -0.000   0.000   0.000   0.000  -0.000
  0.001  -0.000   0.000   0.000  -0.000  -0.000   0.000  -0.000
  0.000  -0.000  -0.000   0.000  -0.001  -0.000   0.000   0.000
  0.000   0.000  -0.000   0.000  -0.000  -0.000  -0.000   0.000
 -0.001   0.000  -0.000  -0.000   0.000   0.000  -0.000   0.000
 total augmentation occupancy for first ion, spin component:           1
  0.980  -0.040   0.000   0.000  -0.000   0.019   0.196  -0.000  -0.000  -0.000  -0.000  -0.000   0.000   0.000   0.004  -0.000
 -0.040   0.929  -0.000  -0.000   0.000   0.195   0.213   0.000   0.000  -0.000  -0.000   0.000   0.000   0.000   0.001  -0.000
  0.000  -0.000   1.025  -0.000  -0.000  -0.000   0.000  -0.110   0.000   0.000  -0.005  -0.010  -0.000   0.000   0.000  -0.000
  0.000  -0.000  -0.000   0.929   0.040  -0.000  -0.000   0.000   0.213  -0.195  -0.000   0.000  -0.001  -0.000   0.000  -0.000
 -0.000   0.000  -0.000   0.040   0.980   0.000  -0.000   0.000  -0.196   0.019   0.000   0.000   0.004  -0.000  -0.000   0.000
  0.019   0.195  -0.000  -0.000   0.000   0.124   0.057   0.000  -0.000  -0.000   0.000  -0.000  -0.000   0.000   0.010  -0.000
  0.196   0.213   0.000  -0.000  -0.000   0.057   0.183   0.000  -0.000  -0.000  -0.000  -0.000   0.000   0.000  -0.003  -0.000
 -0.000   0.000  -0.110   0.000   0.000   0.000   0.000   0.119   0.000  -0.000   0.042  -0.008  -0.000   0.000   0.000   0.000
 -0.000   0.000   0.000   0.213  -0.196  -0.000  -0.000   0.000   0.183  -0.057   0.000   0.000   0.003   0.000   0.000  -0.000
 -0.000  -0.000   0.000  -0.195   0.019  -0.000  -0.000  -0.000  -0.057   0.124  -0.000   0.000   0.010  -0.000   0.000  -0.001
 -0.000  -0.000  -0.005  -0.000   0.000   0.000  -0.000   0.042  -0.000  -0.000   1.032  -0.135   0.000   0.000   0.000   0.000
 -0.000  -0.000  -0.010   0.000   0.000  -0.000  -0.000  -0.008   0.000   0.000  -0.135   0.048  -0.000  -0.000  -0.000  -0.000
  0.000   0.000  -0.000  -0.001   0.004  -0.000   0.000  -0.000   0.003   0.010  -0.000  -0.000   0.197   0.000  -0.000  -0.001
  0.000   0.000   0.000  -0.000  -0.000   0.000   0.000   0.000   0.000  -0.000   0.000  -0.000   0.000   0.209  -0.000  -0.000
  0.004   0.001   0.000   0.000  -0.000   0.010  -0.003   0.000   0.000   0.000  -0.000  -0.000  -0.000  -0.000   0.197   0.000
 -0.000  -0.000  -0.000  -0.000   0.000  -0.000  -0.000   0.000  -0.000  -0.001  -0.000  -0.000  -0.001  -0.000   0.000   0.000
  0.000   0.000   0.000  -0.000  -0.000  -0.000   0.000  -0.000   0.000   0.000  -0.000   0.000   0.000  -0.001   0.000   0.000
  0.000   0.000   0.000  -0.000   0.000  -0.001   0.000  -0.000  -0.000   0.000  -0.000  -0.000  -0.000   0.000  -0.001  -0.000
 total augmentation occupancy for first ion, spin component:           2
  0.737  -0.286   0.000   0.000  -0.000  -0.145   0.047  -0.000  -0.000  -0.000  -0.000  -0.000   0.000  -0.000   0.003  -0.000
 -0.286   0.465  -0.000  -0.000   0.000   0.044  -0.092   0.000  -0.000  -0.000   0.000  -0.000  -0.000   0.000   0.004   0.000
  0.000  -0.000   0.921  -0.000  -0.000  -0.000   0.000  -0.199   0.000   0.000  -0.026  -0.003  -0.000  -0.000   0.000  -0.000
  0.000  -0.000  -0.000   0.465   0.286  -0.000   0.000   0.000  -0.092  -0.044   0.000  -0.000  -0.004  -0.000  -0.000   0.000
 -0.000   0.000  -0.000   0.286   0.737   0.000  -0.000   0.000  -0.047  -0.145   0.000   0.000   0.003   0.000  -0.000   0.001
 -0.145   0.044  -0.000  -0.000   0.000  -0.001  -0.047   0.000   0.000  -0.000   0.000   0.000  -0.000   0.000  -0.002   0.000
  0.047  -0.092   0.000   0.000  -0.000  -0.047  -0.046  -0.000   0.000   0.000   0.000  -0.000  -0.000   0.000  -0.000   0.000
 -0.000   0.000  -0.199   0.000   0.000   0.000  -0.000   0.040  -0.000  -0.000   0.010   0.003   0.000   0.000  -0.000   0.000
 -0.000  -0.000   0.000  -0.092  -0.047   0.000   0.000  -0.000  -0.046   0.047   0.000   0.000   0.000   0.000  -0.000  -0.000
 -0.000  -0.000   0.000  -0.044  -0.145  -0.000   0.000  -0.000   0.047  -0.001  -0.000  -0.000  -0.002  -0.000   0.000  -0.000
 -0.000   0.000  -0.026   0.000   0.000   0.000   0.000   0.010   0.000  -0.000   0.180   0.064   0.000   0.000   0.000   0.000
 -0.000  -0.000  -0.003  -0.000   0.000   0.000  -0.000   0.003   0.000  -0.000   0.064  -0.017  -0.000   0.000  -0.000   0.000
  0.000  -0.000  -0.000  -0.004   0.003  -0.000  -0.000   0.000   0.000  -0.002  -0.000   0.000   0.028   0.000  -0.000   0.003
 -0.000   0.000  -0.000  -0.000   0.000   0.000   0.000   0.000   0.000  -0.000   0.000   0.000   0.000   0.023  -0.000   0.000
  0.003   0.004   0.000  -0.000  -0.000  -0.002  -0.000  -0.000  -0.000   0.000  -0.000  -0.000  -0.000  -0.000   0.028   0.000
 -0.000   0.000  -0.000   0.000   0.001   0.000   0.000   0.000  -0.000  -0.000   0.000   0.000   0.003   0.000   0.000   0.000
  0.000   0.000   0.000  -0.000  -0.000  -0.000   0.000  -0.000   0.000   0.000   0.000  -0.000   0.000   0.002  -0.000  -0.000
  0.001  -0.000   0.000   0.000   0.000  -0.000   0.000  -0.000   0.000  -0.000  -0.000  -0.000  -0.000  -0.000   0.003  -0.000


------------------------ aborting loop because EDIFF is reached ----------------------------------------





 total charge     

# of ion       s       p       d       tot
------------------------------------------
    1        0.330   0.402   4.236   4.968
    2        0.330   0.402   4.236   4.968
    3        0.778   0.840   0.000   1.618
    4        0.778   0.840   0.000   1.618
    5        1.387   1.990   0.035   3.412
    6        1.381   1.993   0.035   3.409
    7        1.386   1.989   0.035   3.410
    8        1.387   1.990   0.035   3.412
    9        1.381   1.993   0.035   3.409
   10        1.386   1.989   0.035   3.410
--------------------------------------------------
tot         10.524  14.429   8.681  33.635



 magnetization (x)

# of ion       s       p       d       tot
------------------------------------------
    1        0.042   0.046   3.050   3.138
    2        0.042   0.046   3.050   3.138
    3        0.003   0.027   0.000   0.030
    4        0.003   0.027   0.000   0.030
    5       -0.001  -0.100   0.005  -0.097
    6       -0.002  -0.083   0.005  -0.080
    7       -0.001  -0.095   0.005  -0.092
    8       -0.001  -0.100   0.005  -0.097
    9       -0.002  -0.083   0.005  -0.080
   10       -0.001  -0.095   0.005  -0.092
--------------------------------------------------
tot          0.080  -0.412   6.129   5.798

    CHARGE:  cpu time    2.0720: real time    2.0816
    FORLOC:  cpu time    0.0920: real time    0.0915
    FORNL :  cpu time    6.0520: real time    6.0767
    STRESS:  cpu time   18.2720: real time   18.3764
    FORCOR:  cpu time  102.5040: real time  103.1255
    FORHAR:  cpu time    0.4200: real time    0.4229
    MIXING:  cpu time    0.0520: real time    0.0497
    OFIELD:  cpu time    0.0000: real time    0.0000

  FORCE on cell =-STRESS in cart. coord.  units (eV):
  Direction    XX          YY          ZZ          XY          YZ          ZX
  --------------------------------------------------------------------------------------
  Alpha Z    11.20586    11.20586    11.20586
  Ewald    6956.49526  6956.49311 -8405.29802    -0.00099    -0.00040    -0.00073
  Hartree  7261.97339  7261.97376 -7126.31217    -0.00001     0.00005     0.00009
  E(xc)    -222.84640  -222.84637  -222.49255     0.00002     0.00002     0.00002
  Local  -15075.20326-15075.20236 14645.95300     0.00075     0.00025     0.00047
  n-local   722.86843   724.62177   733.76456     0.71536     0.90737     0.91999
  augment  -110.74080  -110.74071  -116.75305    -0.00001     0.00002     0.00002
  Kinetic   458.02302   452.12146   479.45721    -4.22498     0.59526     0.61109
  Fock        0.00000     0.00000     0.00000     0.00000     0.00000     0.00000
  -------------------------------------------------------------------------------------
  Total      -0.29898    -0.29898    -0.47514     0.00000    -0.00000    -0.00000
  in kB      -0.53103    -0.53103    -0.84393     0.00000    -0.00000    -0.00000
  external pressure =       -0.64 kB  Pullay stress =        0.00 kB


 VOLUME and BASIS-vectors are now :
 -----------------------------------------------------------------------------
  energy-cutoff  :      520.00
  volume of cell :      902.05
      direct lattice vectors                 reciprocal lattice vectors
     6.838255475 -0.000000109 -0.000000000     0.146236126 -0.084429463  0.000000000
     3.419127348  5.922102550 -0.000000000     0.000000003  0.168858945 -0.000000000
    -0.000000000  0.000000000 22.274511276     0.000000000 -0.000000000  0.044894363

  length of vectors
     6.838255475  6.838254926 22.274511276     0.168858932  0.168858945  0.044894363


 FORCES acting on ions
    electron-ion (+dipol)            ewald-force                    non-local-force                 convergence-correction
 -----------------------------------------------------------------------------------------------
   -.314E-04 -.221E-04 0.288E-01   0.317E-03 0.188E-03 -.288E-01   0.354E-22 -.694E-17 -.852E-04   0.159E-07 0.750E-08 -.616E-04
   0.314E-04 0.221E-04 -.288E-01   -.317E-03 -.188E-03 0.288E-01   0.347E-17 0.104E-16 0.852E-04   -.159E-07 -.750E-08 0.616E-04
   -.293E-04 -.225E-04 0.160E+03   -.145E-03 -.798E-04 -.155E+03   0.229E-16 -.154E-16 -.506E+01   0.127E-07 0.764E-08 0.171E-01
   0.293E-04 0.225E-04 -.160E+03   0.145E-03 0.798E-04 0.155E+03   0.485E-17 0.224E-16 0.506E+01   -.127E-07 -.764E-08 -.171E-01
   -.379E+01 0.541E-02 -.340E+03   -.193E-01 -.559E-02 0.345E+03   0.382E+01 -.613E-03 -.462E+01   -.420E-02 -.205E-04 -.336E-01
   0.190E+01 0.328E+01 -.340E+03   0.444E-02 0.194E-01 0.345E+03   -.191E+01 -.331E+01 -.462E+01   0.208E-02 0.364E-02 -.336E-01
   0.189E+01 -.328E+01 -.340E+03   0.145E-01 -.140E-01 0.345E+03   -.191E+01 0.331E+01 -.462E+01   0.212E-02 -.362E-02 -.336E-01
   0.379E+01 -.541E-02 0.340E+03   0.193E-01 0.559E-02 -.345E+03   -.382E+01 0.613E-03 0.462E+01   0.420E-02 0.205E-04 0.336E-01
   -.190E+01 -.328E+01 0.340E+03   -.444E-02 -.194E-01 -.345E+03   0.191E+01 0.331E+01 0.462E+01   -.208E-02 -.364E-02 0.336E-01
   -.189E+01 0.328E+01 0.340E+03   -.145E-01 0.140E-01 -.345E+03   0.191E+01 -.331E+01 0.462E+01   -.212E-02 0.362E-02 0.336E-01
 -----------------------------------------------------------------------------------------------
   0.152E-09 0.225E-09 -.387E-10   -.348E-14 0.465E-14 -.568E-13   0.444E-15 -.444E-15 0.888E-15   -.138E-12 -.607E-13 0.227E-10


 POSITION                                       TOTAL-FORCE (eV/Angst)
 -----------------------------------------------------------------------------------
      3.41912      1.97403     11.13717         0.000000     -0.000000     -0.000181
      6.83826      3.94807     11.13734         0.000000      0.000000      0.000181
     -0.00000      0.00000      9.98379        -0.000000      0.000000      0.233067
     -0.00000      0.00000     12.29072         0.000000     -0.000000     -0.233067
      4.34856      0.00011     12.86556         0.010801     -0.000262      0.023018
      1.24495      2.15609     12.86556        -0.005628     -0.009223      0.023018
      4.66388      3.76591     12.86556        -0.005174      0.009485      0.023018
      5.90882      5.92199      9.40895        -0.010801      0.000262     -0.023018
      9.01244      3.76602      9.40895         0.005628      0.009223     -0.023018
      5.59350      2.15619      9.40895         0.005174     -0.009485     -0.023018
 -----------------------------------------------------------------------------------
    total drift:                                0.000000      0.000000     -0.000000


--------------------------------------------------------------------------------------------------------



  FREE ENERGIE OF THE ION-ELECTRON SYSTEM (eV)
  ---------------------------------------------------
  free  energy   TOTEN  =       -44.05928524 eV

  energy  without entropy=      -44.05928524  energy(sigma->0) =      -44.05928524

 d Force =-0.6860398E-04[-0.918E-04,-0.454E-04]  d Energy =-0.3947607E-03 0.326E-03
 d Force =-0.1080828E+01[-0.108E+01,-0.108E+01]  d Ewald  = 0.2041582E+02-0.215E+02


--------------------------------------------------------------------------------------------------------


    POTLOK:  cpu time  100.0640: real time  100.5538


--------------------------------------------------------------------------------------------------------




--------------------------------------------------------------------------------------------------------


  
 reached required accuracy - stopping structural energy minimisation
     LOOP+:  cpu time  874.7160: real time  880.9727
    4ORBIT:  cpu time    0.0000: real time    0.0000



 total charge     

# of ion       s       p       d       tot
------------------------------------------
    1        0.330   0.402   4.236   4.968
    2        0.330   0.402   4.236   4.968
    3        0.778   0.840   0.000   1.618
    4        0.778   0.840   0.000   1.618
    5        1.387   1.990   0.035   3.412
    6        1.381   1.993   0.035   3.409
    7        1.386   1.989   0.035   3.410
    8        1.387   1.990   0.035   3.412
    9        1.381   1.993   0.035   3.409
   10        1.386   1.989   0.035   3.410
--------------------------------------------------
tot         10.524  14.429   8.681  33.635



 magnetization (x)

# of ion       s       p       d       tot
------------------------------------------
    1        0.042   0.046   3.050   3.138
    2        0.042   0.046   3.050   3.138
    3        0.003   0.027   0.000   0.030
    4        0.003   0.027   0.000   0.030
    5       -0.001  -0.100   0.005  -0.097
    6       -0.002  -0.083   0.005  -0.080
    7       -0.001  -0.095   0.005  -0.092
    8       -0.001  -0.100   0.005  -0.097
    9       -0.002  -0.083   0.005  -0.080
   10       -0.001  -0.095   0.005  -0.092
--------------------------------------------------
tot          0.080  -0.412   6.129   5.798

 BZINTS: Fermi energy: -1.962420; 56.000000 electrons
         Band energy:-360.226913;  BLOECHL correction:  0.000000

 total amount of memory used by VASP MPI-rank0   169747. kBytes
=======================================================================

   base      :      30000. kBytes
   nonlr-proj:       7947. kBytes
   fftplans  :      20284. kBytes
   grid      :      90201. kBytes
   one-center:        311. kBytes
   wavefun   :      21004. kBytes

  
  
 General timing and accounting informations for this job:
 ========================================================
  
                  Total CPU time used (sec):    22778.660
                            User time (sec):    22672.436
                          System time (sec):      106.224
                         Elapsed time (sec):    22876.891
  
                   Maximum memory used (kb):      592392.
                   Average memory used (kb):           0.
  
                          Minor page faults:     29474996
                          Major page faults:            8
                 Voluntary context switches:          985
