  10  10   1   0
  0.9688350E+02  0.6907777E-09  0.6907777E-09  0.2344459E-08  0.5000000E-15
   1.0000000000000000E-004
  CAR 
 unknown system                          
      4.11566172    -18.57423757  301     -2.77190309      1.00000000
    -18.574  0.0000E+00  0.0000E+00  0.0000E+00  0.0000E+00
    -18.499  0.0000E+00  0.0000E+00  0.0000E+00  0.0000E+00
    -18.423  0.0000E+00  0.0000E+00  0.0000E+00  0.0000E+00
    -18.347  0.0000E+00  0.0000E+00  0.0000E+00  0.0000E+00
    -18.272  0.0000E+00  0.0000E+00  0.0000E+00  0.0000E+00
    -18.196  0.0000E+00  0.0000E+00  0.0000E+00  0.0000E+00
    -18.120  0.0000E+00  0.0000E+00  0.0000E+00  0.0000E+00
    -18.045  0.0000E+00  0.0000E+00  0.0000E+00  0.0000E+00
    -17.969  0.0000E+00  0.0000E+00  0.0000E+00  0.0000E+00
    -17.894  0.0000E+00  0.0000E+00  0.0000E+00  0.0000E+00
    -17.818  0.0000E+00  0.0000E+00  0.0000E+00  0.0000E+00
    -17.742  0.0000E+00  0.0000E+00  0.0000E+00  0.0000E+00
    -17.667  0.0000E+00  0.0000E+00  0.0000E+00  0.0000E+00
    -17.591  0.0000E+00  0.0000E+00  0.0000E+00  0.0000E+00
    -17.515  0.3329E-02  0.3329E-02  0.4578E-04  0.4578E-04
    -17.440  0.1249E-01  0.1249E-01  0.6438E-03  0.6438E-03
    -17.364  0.9378E-02  0.9378E-02  0.1553E-02  0.1553E-02
    -17.288  0.1026E-01  0.1026E-01  0.2296E-02  0.2296E-02
    -17.213  0.1114E-01  0.1114E-01  0.3106E-02  0.3106E-02
    -17.137  0.1203E-01  0.1203E-01  0.3982E-02  0.3982E-02
    -17.062  0.1171E-01  0.1171E-01  0.4884E-02  0.4884E-02
    -16.986  0.1765E-01  0.1765E-01  0.5853E-02  0.5853E-02
    -16.910  0.1483E-01  0.1483E-01  0.7081E-02  0.7081E-02
    -16.835  0.1202E-01  0.1202E-01  0.8097E-02  0.8097E-02
    -16.759  0.9198E-02  0.9198E-02  0.8899E-02  0.8899E-02
    -16.683  0.6380E-02  0.6380E-02  0.9488E-02  0.9488E-02
    -16.608  0.1084E-01  0.1084E-01  0.1083E-01  0.1082E-01
    -16.532  0.3446E-01  0.3446E-01  0.1251E-01  0.1251E-01
    -16.457  0.5212E-01  0.5212E-01  0.1567E-01  0.1567E-01
    -16.381  0.2975E-01  0.2975E-01  0.1914E-01  0.1914E-01
    -16.305  0.0000E+00  0.0000E+00  0.2020E-01  0.2020E-01
    -16.230  0.0000E+00  0.0000E+00  0.2020E-01  0.2020E-01
    -16.154  0.5228E-01  0.5228E-01  0.2507E-01  0.2507E-01
    -16.078  0.1448E-01  0.1448E-01  0.2684E-01  0.2684E-01
    -16.003  0.5453E-01  0.5453E-01  0.3088E-01  0.3088E-01
    -15.927  0.7754E-01  0.7754E-01  0.3618E-01  0.3618E-01
    -15.851  0.5482E-01  0.5482E-01  0.4056E-01  0.4056E-01
    -15.776  0.5501E-01  0.5501E-01  0.4453E-01  0.4453E-01
    -15.700  0.7266E-01  0.7266E-01  0.5257E-01  0.5257E-01
    -15.625  0.4700E-01  0.4700E-01  0.5668E-01  0.5668E-01
    -15.549  0.3073E-01  0.3073E-01  0.6001E-01  0.6001E-01
    -15.473  0.0000E+00  0.0000E+00  0.6061E-01  0.6061E-01
    -15.398  0.0000E+00  0.0000E+00  0.6061E-01  0.6061E-01
    -15.322  0.0000E+00  0.0000E+00  0.6061E-01  0.6061E-01
    -15.246  0.0000E+00  0.0000E+00  0.6061E-01  0.6061E-01
    -15.171  0.0000E+00  0.0000E+00  0.6061E-01  0.6061E-01
    -15.095  0.0000E+00  0.0000E+00  0.6061E-01  0.6061E-01
    -15.019  0.0000E+00  0.0000E+00  0.6061E-01  0.6061E-01
    -14.944  0.0000E+00  0.0000E+00  0.6061E-01  0.6061E-01
    -14.868  0.0000E+00  0.0000E+00  0.6061E-01  0.6061E-01
    -14.793  0.0000E+00  0.0000E+00  0.6061E-01  0.6061E-01
    -14.717  0.0000E+00  0.0000E+00  0.6061E-01  0.6061E-01
    -14.641  0.0000E+00  0.0000E+00  0.6061E-01  0.6061E-01
    -14.566  0.0000E+00  0.0000E+00  0.6061E-01  0.6061E-01
    -14.490  0.0000E+00  0.0000E+00  0.6061E-01  0.6061E-01
    -14.414  0.0000E+00  0.0000E+00  0.6061E-01  0.6061E-01
    -14.339  0.0000E+00  0.0000E+00  0.6061E-01  0.6061E-01
    -14.263  0.0000E+00  0.0000E+00  0.6061E-01  0.6061E-01
    -14.188  0.0000E+00  0.0000E+00  0.6061E-01  0.6061E-01
    -14.112  0.0000E+00  0.0000E+00  0.6061E-01  0.6061E-01
    -14.036  0.0000E+00  0.0000E+00  0.6061E-01  0.6061E-01
    -13.961  0.0000E+00  0.0000E+00  0.6061E-01  0.6061E-01
    -13.885  0.0000E+00  0.0000E+00  0.6061E-01  0.6061E-01
    -13.809  0.0000E+00  0.0000E+00  0.6061E-01  0.6061E-01
    -13.734  0.0000E+00  0.0000E+00  0.6061E-01  0.6061E-01
    -13.658  0.0000E+00  0.0000E+00  0.6061E-01  0.6061E-01
    -13.582  0.0000E+00  0.0000E+00  0.6061E-01  0.6061E-01
    -13.507  0.0000E+00  0.0000E+00  0.6061E-01  0.6061E-01
    -13.431  0.0000E+00  0.0000E+00  0.6061E-01  0.6061E-01
    -13.356  0.0000E+00  0.0000E+00  0.6061E-01  0.6061E-01
    -13.280  0.0000E+00  0.0000E+00  0.6061E-01  0.6061E-01
    -13.204  0.0000E+00  0.0000E+00  0.6061E-01  0.6061E-01
    -13.129  0.0000E+00  0.0000E+00  0.6061E-01  0.6061E-01
    -13.053  0.0000E+00  0.0000E+00  0.6061E-01  0.6061E-01
    -12.977  0.0000E+00  0.0000E+00  0.6061E-01  0.6061E-01
    -12.902  0.0000E+00  0.0000E+00  0.6061E-01  0.6061E-01
    -12.826  0.0000E+00  0.0000E+00  0.6061E-01  0.6061E-01
    -12.750  0.0000E+00  0.0000E+00  0.6061E-01  0.6061E-01
    -12.675  0.0000E+00  0.0000E+00  0.6061E-01  0.6061E-01
    -12.599  0.0000E+00  0.0000E+00  0.6061E-01  0.6061E-01
    -12.524  0.0000E+00  0.0000E+00  0.6061E-01  0.6061E-01
    -12.448  0.0000E+00  0.0000E+00  0.6061E-01  0.6061E-01
    -12.372  0.0000E+00  0.0000E+00  0.6061E-01  0.6061E-01
    -12.297  0.0000E+00  0.0000E+00  0.6061E-01  0.6061E-01
    -12.221  0.0000E+00  0.0000E+00  0.6061E-01  0.6061E-01
    -12.145  0.0000E+00  0.0000E+00  0.6061E-01  0.6061E-01
    -12.070  0.0000E+00  0.0000E+00  0.6061E-01  0.6061E-01
    -11.994  0.2496E-01  0.2496E-01  0.6205E-01  0.6205E-01
    -11.919  0.4319E-01  0.4319E-01  0.6462E-01  0.6462E-01
    -11.843  0.4601E-01  0.4601E-01  0.6907E-01  0.6907E-01
    -11.767  0.0000E+00  0.0000E+00  0.7071E-01  0.7071E-01
    -11.692  0.0000E+00  0.0000E+00  0.7071E-01  0.7071E-01
    -11.616  0.0000E+00  0.0000E+00  0.7071E-01  0.7071E-01
    -11.540  0.0000E+00  0.0000E+00  0.7071E-01  0.7071E-01
    -11.465  0.0000E+00  0.0000E+00  0.7071E-01  0.7071E-01
    -11.389  0.0000E+00  0.0000E+00  0.7071E-01  0.7071E-01
    -11.313  0.0000E+00  0.0000E+00  0.7071E-01  0.7071E-01
    -11.238  0.0000E+00  0.0000E+00  0.7071E-01  0.7071E-01
    -11.162  0.0000E+00  0.0000E+00  0.7071E-01  0.7071E-01
    -11.087  0.0000E+00  0.0000E+00  0.7071E-01  0.7071E-01
    -11.011  0.0000E+00  0.0000E+00  0.7071E-01  0.7071E-01
    -10.935  0.0000E+00  0.0000E+00  0.7071E-01  0.7071E-01
    -10.860  0.0000E+00  0.0000E+00  0.7071E-01  0.7071E-01
    -10.784  0.0000E+00  0.0000E+00  0.7071E-01  0.7071E-01
    -10.708  0.0000E+00  0.0000E+00  0.7071E-01  0.7071E-01
    -10.633  0.0000E+00  0.0000E+00  0.7071E-01  0.7071E-01
    -10.557  0.0000E+00  0.0000E+00  0.7071E-01  0.7071E-01
    -10.482  0.0000E+00  0.0000E+00  0.7071E-01  0.7071E-01
    -10.406  0.0000E+00  0.0000E+00  0.7071E-01  0.7071E-01
    -10.330  0.0000E+00  0.0000E+00  0.7071E-01  0.7071E-01
    -10.255  0.1251E+00  0.1251E+00  0.7143E-01  0.7143E-01
    -10.179  0.2620E-01  0.2620E-01  0.7755E-01  0.7755E-01
    -10.103  0.2084E-01  0.2084E-01  0.7933E-01  0.7933E-01
    -10.028  0.8754E-02  0.8755E-02  0.8029E-01  0.8029E-01
     -9.952  0.3144E-02  0.3144E-02  0.8074E-01  0.8074E-01
     -9.876  0.0000E+00  0.0000E+00  0.8081E-01  0.8081E-01
     -9.801  0.0000E+00  0.0000E+00  0.8081E-01  0.8081E-01
     -9.725  0.0000E+00  0.0000E+00  0.8081E-01  0.8081E-01
     -9.650  0.0000E+00  0.0000E+00  0.8081E-01  0.8081E-01
     -9.574  0.0000E+00  0.0000E+00  0.8081E-01  0.8081E-01
     -9.498  0.0000E+00  0.0000E+00  0.8081E-01  0.8081E-01
     -9.423  0.0000E+00  0.0000E+00  0.8081E-01  0.8081E-01
     -9.347  0.0000E+00  0.0000E+00  0.8081E-01  0.8081E-01
     -9.271  0.0000E+00  0.0000E+00  0.8081E-01  0.8081E-01
     -9.196  0.0000E+00  0.0000E+00  0.8081E-01  0.8081E-01
     -9.120  0.0000E+00  0.0000E+00  0.8081E-01  0.8081E-01
     -9.044  0.0000E+00  0.0000E+00  0.8081E-01  0.8081E-01
     -8.969  0.0000E+00  0.0000E+00  0.8081E-01  0.8081E-01
     -8.893  0.0000E+00  0.0000E+00  0.8081E-01  0.8081E-01
     -8.818  0.0000E+00  0.0000E+00  0.8081E-01  0.8081E-01
     -8.742  0.0000E+00  0.0000E+00  0.8081E-01  0.8081E-01
     -8.666  0.0000E+00  0.0000E+00  0.8081E-01  0.8081E-01
     -8.591  0.0000E+00  0.0000E+00  0.8081E-01  0.8081E-01
     -8.515  0.3001E-01  0.3002E-01  0.8314E-01  0.8314E-01
     -8.439  0.1721E-01  0.1721E-01  0.8453E-01  0.8453E-01
     -8.364  0.1906E-01  0.1906E-01  0.8590E-01  0.8590E-01
     -8.288  0.2091E-01  0.2091E-01  0.8741E-01  0.8741E-01
     -8.213  0.3290E-01  0.3291E-01  0.8985E-01  0.8985E-01
     -8.137  0.1111E-01  0.1111E-01  0.9223E-01  0.9223E-01
     -8.061  0.1859E-01  0.1859E-01  0.9336E-01  0.9336E-01
     -7.986  0.2698E-01  0.2698E-01  0.9507E-01  0.9507E-01
     -7.910  0.3851E-01  0.3851E-01  0.9762E-01  0.9762E-01
     -7.834  0.3541E-01  0.3541E-01  0.1004E+00  0.1004E+00
     -7.759  0.3373E-01  0.3373E-01  0.1030E+00  0.1030E+00
     -7.683  0.3276E-01  0.3276E-01  0.1055E+00  0.1055E+00
     -7.607  0.5042E-01  0.5042E-01  0.1110E+00  0.1110E+00
     -7.532  0.9710E-02  0.9710E-02  0.1135E+00  0.1135E+00
     -7.456  0.1135E-01  0.1135E-01  0.1143E+00  0.1143E+00
     -7.381  0.1300E-01  0.1300E-01  0.1153E+00  0.1153E+00
     -7.305  0.1431E-01  0.1431E-01  0.1163E+00  0.1163E+00
     -7.229  0.1464E-01  0.1464E-01  0.1174E+00  0.1174E+00
     -7.154  0.1582E-01  0.1582E-01  0.1185E+00  0.1185E+00
     -7.078  0.3274E-01  0.3274E-01  0.1220E+00  0.1220E+00
     -7.002  0.3134E-01  0.3134E-01  0.1244E+00  0.1244E+00
     -6.927  0.3126E-01  0.3126E-01  0.1268E+00  0.1268E+00
     -6.851  0.3118E-01  0.3118E-01  0.1292E+00  0.1292E+00
     -6.775  0.9046E-01  0.9046E-01  0.1336E+00  0.1336E+00
     -6.700  0.1028E+00  0.1028E+00  0.1409E+00  0.1409E+00
     -6.624  0.1719E-01  0.1719E-01  0.1449E+00  0.1449E+00
     -6.549  0.7605E-01  0.7605E-01  0.1481E+00  0.1481E+00
     -6.473  0.4126E-01  0.4126E-01  0.1544E+00  0.1544E+00
     -6.397  0.3385E-01  0.3385E-01  0.1573E+00  0.1573E+00
     -6.322  0.8421E-01  0.8421E-01  0.1602E+00  0.1602E+00
     -6.246  0.8248E-01  0.8250E-01  0.1682E+00  0.1682E+00
     -6.170  0.6717E-01  0.6717E-01  0.1724E+00  0.1724E+00
     -6.095  0.3610E-01  0.3610E-01  0.1769E+00  0.1769E+00
     -6.019  0.2295E-01  0.2295E-01  0.1791E+00  0.1791E+00
     -5.944  0.4557E-01  0.4556E-01  0.1813E+00  0.1813E+00
     -5.868  0.4994E-01  0.4994E-01  0.1851E+00  0.1851E+00
     -5.792  0.5419E-01  0.5419E-01  0.1894E+00  0.1894E+00
     -5.717  0.4277E-01  0.4277E-01  0.1938E+00  0.1938E+00
     -5.641  0.1106E+00  0.1106E+00  0.1971E+00  0.1971E+00
     -5.565  0.4129E-01  0.4129E-01  0.2042E+00  0.2042E+00
     -5.490  0.1997E-01  0.1997E-01  0.2059E+00  0.2059E+00
     -5.414  0.1786E-01  0.1786E-01  0.2073E+00  0.2073E+00
     -5.338  0.1576E-01  0.1576E-01  0.2086E+00  0.2086E+00
     -5.263  0.1818E-01  0.1818E-01  0.2097E+00  0.2097E+00
     -5.187  0.1231E-01  0.1231E-01  0.2108E+00  0.2108E+00
     -5.112  0.1595E+00  0.1596E+00  0.2202E+00  0.2202E+00
     -5.036  0.7273E-02  0.7273E-02  0.2217E+00  0.2217E+00
     -4.960  0.3527E-02  0.3527E-02  0.2221E+00  0.2221E+00
     -4.885  0.6199E-01  0.6199E-01  0.2236E+00  0.2236E+00
     -4.809  0.2548E-01  0.2548E-01  0.2290E+00  0.2290E+00
     -4.733  0.1082E+00  0.1082E+00  0.2399E+00  0.2399E+00
     -4.658  0.6807E-01  0.6808E-01  0.2485E+00  0.2485E+00
     -4.582  0.3009E+00  0.3008E+00  0.2568E+00  0.2568E+00
     -4.507  0.1612E+00  0.1612E+00  0.2679E+00  0.2679E+00
     -4.431  0.4765E-01  0.4768E-01  0.2754E+00  0.2754E+00
     -4.355  0.5025E-01  0.5024E-01  0.2787E+00  0.2787E+00
     -4.280  0.1644E+00  0.1644E+00  0.2878E+00  0.2878E+00
     -4.204  0.4131E-01  0.4130E-01  0.2927E+00  0.2927E+00
     -4.128  0.3147E-01  0.3148E-01  0.2963E+00  0.2963E+00
     -4.053  0.1874E-01  0.1874E-01  0.2982E+00  0.2982E+00
     -3.977  0.1430E-01  0.1430E-01  0.2994E+00  0.2994E+00
     -3.901  0.7414E-01  0.7414E-01  0.3044E+00  0.3044E+00
     -3.826  0.3739E-01  0.3739E-01  0.3081E+00  0.3081E+00
     -3.750  0.2836E-01  0.2836E-01  0.3106E+00  0.3106E+00
     -3.675  0.1437E-01  0.1437E-01  0.3121E+00  0.3121E+00
     -3.599  0.6546E-02  0.6546E-02  0.3129E+00  0.3129E+00
     -3.523  0.0000E+00  0.0000E+00  0.3131E+00  0.3131E+00
     -3.448  0.0000E+00  0.0000E+00  0.3131E+00  0.3131E+00
     -3.372  0.0000E+00  0.0000E+00  0.3131E+00  0.3131E+00
     -3.296  0.0000E+00  0.0000E+00  0.3131E+00  0.3131E+00
     -3.221  0.1951E-02  0.1951E-02  0.3131E+00  0.3131E+00
     -3.145  0.1375E-01  0.1375E-01  0.3137E+00  0.3137E+00
     -3.069  0.2556E-01  0.2556E-01  0.3152E+00  0.3152E+00
     -2.994  0.3736E-01  0.3736E-01  0.3176E+00  0.3176E+00
     -2.918  0.2364E-01  0.2364E-01  0.3211E+00  0.3211E+00
     -2.843  0.7239E-02  0.7239E-02  0.3222E+00  0.3222E+00
     -2.767  0.2370E-01  0.2370E-01  0.3233E+00  0.3233E+00
     -2.691  0.3956E-01  0.3956E-01  0.3257E+00  0.3257E+00
     -2.616  0.1668E+00  0.1668E+00  0.3323E+00  0.3323E+00
     -2.540  0.2619E-01  0.2619E-01  0.3382E+00  0.3382E+00
     -2.464  0.2101E-01  0.2101E-01  0.3400E+00  0.3400E+00
     -2.389  0.4106E-01  0.4106E-01  0.3423E+00  0.3423E+00
     -2.313  0.2225E-01  0.2225E-01  0.3442E+00  0.3442E+00
     -2.238  0.2692E-01  0.2692E-01  0.3460E+00  0.3460E+00
     -2.162  0.3158E-01  0.3158E-01  0.3482E+00  0.3482E+00
     -2.086  0.9840E-02  0.9840E-02  0.3527E+00  0.3527E+00
     -2.011  0.9029E-02  0.9029E-02  0.3537E+00  0.3537E+00
     -1.935  0.5783E-02  0.5783E-02  0.3543E+00  0.3543E+00
     -1.859  0.6598E-02  0.6598E-02  0.3548E+00  0.3548E+00
     -1.784  0.7986E-02  0.7986E-02  0.3553E+00  0.3553E+00
     -1.708  0.9746E-02  0.9746E-02  0.3560E+00  0.3560E+00
     -1.632  0.1197E-01  0.1197E-01  0.3568E+00  0.3568E+00
     -1.557  0.1424E-01  0.1423E-01  0.3578E+00  0.3578E+00
     -1.481  0.1223E-01  0.1223E-01  0.3588E+00  0.3588E+00
     -1.406  0.1581E-01  0.1581E-01  0.3599E+00  0.3599E+00
     -1.330  0.1802E-01  0.1802E-01  0.3612E+00  0.3612E+00
     -1.254  0.1821E-01  0.1821E-01  0.3626E+00  0.3626E+00
     -1.179  0.1841E-01  0.1841E-01  0.3639E+00  0.3639E+00
     -1.103  0.3048E-02  0.3048E-02  0.3645E+00  0.3645E+00
     -1.027  0.8874E-01  0.8875E-01  0.3726E+00  0.3726E+00
     -0.952  0.0000E+00  0.0000E+00  0.3737E+00  0.3737E+00
     -0.876  0.0000E+00  0.0000E+00  0.3737E+00  0.3737E+00
     -0.800  0.0000E+00  0.0000E+00  0.3737E+00  0.3737E+00
     -0.725  0.0000E+00  0.0000E+00  0.3737E+00  0.3737E+00
     -0.649  0.0000E+00  0.0000E+00  0.3737E+00  0.3737E+00
     -0.574  0.0000E+00  0.0000E+00  0.3737E+00  0.3737E+00
     -0.498  0.0000E+00  0.0000E+00  0.3737E+00  0.3737E+00
     -0.422  0.0000E+00  0.0000E+00  0.3737E+00  0.3737E+00
     -0.347  0.0000E+00  0.0000E+00  0.3737E+00  0.3737E+00
     -0.271  0.0000E+00  0.0000E+00  0.3737E+00  0.3737E+00
     -0.195  0.0000E+00  0.0000E+00  0.3737E+00  0.3737E+00
     -0.120  0.0000E+00  0.0000E+00  0.3737E+00  0.3737E+00
     -0.044  0.0000E+00  0.0000E+00  0.3737E+00  0.3737E+00
      0.031  0.0000E+00  0.0000E+00  0.3737E+00  0.3737E+00
      0.107  0.0000E+00  0.0000E+00  0.3737E+00  0.3737E+00
      0.183  0.0000E+00  0.0000E+00  0.3737E+00  0.3737E+00
      0.258  0.1629E-01  0.1629E-01  0.3753E+00  0.3753E+00
      0.334  0.1668E-01  0.1668E-01  0.3766E+00  0.3766E+00
      0.410  0.1735E-01  0.1735E-01  0.3779E+00  0.3779E+00
      0.485  0.2102E-01  0.2102E-01  0.3793E+00  0.3793E+00
      0.561  0.2469E-01  0.2469E-01  0.3810E+00  0.3810E+00
      0.637  0.2836E-01  0.2836E-01  0.3831E+00  0.3831E+00
      0.712  0.3205E-01  0.3205E-01  0.3853E+00  0.3853E+00
      0.788  0.3985E-01  0.3985E-01  0.3881E+00  0.3881E+00
      0.863  0.1957E-01  0.1957E-01  0.3899E+00  0.3899E+00
      0.939  0.3206E-01  0.3207E-01  0.3920E+00  0.3920E+00
      1.015  0.4561E-01  0.4561E-01  0.3949E+00  0.3949E+00
      1.090  0.8766E-01  0.8766E-01  0.3986E+00  0.3986E+00
      1.166  0.4528E-01  0.4528E-01  0.4032E+00  0.4032E+00
      1.242  0.7491E-01  0.7489E-01  0.4079E+00  0.4079E+00
      1.317  0.4218E-01  0.4218E-01  0.4141E+00  0.4141E+00
      1.393  0.2908E-01  0.2909E-01  0.4168E+00  0.4168E+00
      1.469  0.1442E-01  0.1442E-01  0.4182E+00  0.4182E+00
      1.544  0.2157E-01  0.2157E-01  0.4196E+00  0.4196E+00
      1.620  0.2873E-01  0.2873E-01  0.4215E+00  0.4215E+00
      1.695  0.1775E-01  0.1777E-01  0.4240E+00  0.4240E+00
      1.771  0.7780E-01  0.7775E-01  0.4259E+00  0.4259E+00
      1.847  0.1242E-01  0.1243E-01  0.4298E+00  0.4298E+00
      1.922  0.1115E-01  0.1116E-01  0.4307E+00  0.4307E+00
      1.998  0.4210E-01  0.4304E-01  0.4343E+00  0.4343E+00
      2.074  0.5151E-01  0.5167E-01  0.4378E+00  0.4378E+00
      2.149  0.5904E-01  0.5905E-01  0.4418E+00  0.4418E+00
      2.225  0.5938E-01  0.5937E-01  0.4463E+00  0.4463E+00
      2.300  0.4309E-01  0.4308E-01  0.4501E+00  0.4501E+00
      2.376  0.1727E-01  0.1727E-01  0.4535E+00  0.4535E+00
      2.452  0.5277E-01  0.5316E-01  0.4589E+00  0.4589E+00
      2.527  0.3555E-01  0.3602E-01  0.4629E+00  0.4630E+00
      2.603  0.0000E+00  0.0000E+00  0.4646E+00  0.4646E+00
      2.679  0.1084E-02  0.1056E-02  0.4646E+00  0.4646E+00
      2.754  0.4808E-01  0.4805E-01  0.4670E+00  0.4670E+00
      2.830  0.6192E-01  0.6213E-01  0.4715E+00  0.4716E+00
      2.906  0.6163E-01  0.6890E-01  0.4776E+00  0.4778E+00
      2.981  0.3551E-01  0.3158E-01  0.4809E+00  0.4812E+00
      3.057  0.1864E-01  0.1694E-01  0.4830E+00  0.4830E+00
      3.132  0.0000E+00  0.0000E+00  0.4848E+00  0.4848E+00
      3.208  0.0000E+00  0.0000E+00  0.4848E+00  0.4848E+00
      3.284  0.0000E+00  0.0000E+00  0.4848E+00  0.4848E+00
      3.359  0.0000E+00  0.0000E+00  0.4848E+00  0.4848E+00
      3.435  0.0000E+00  0.0000E+00  0.4848E+00  0.4848E+00
      3.511  0.0000E+00  0.0000E+00  0.4848E+00  0.4848E+00
      3.586  0.0000E+00  0.0000E+00  0.4848E+00  0.4848E+00
      3.662  0.0000E+00  0.0000E+00  0.4848E+00  0.4848E+00
      3.737  0.0000E+00  0.0000E+00  0.4848E+00  0.4848E+00
      3.813  0.0000E+00  0.0000E+00  0.4848E+00  0.4848E+00
      3.889  0.0000E+00  0.0000E+00  0.4848E+00  0.4848E+00
      3.964  0.0000E+00  0.0000E+00  0.4848E+00  0.4848E+00
      4.040  0.0000E+00  0.0000E+00  0.4848E+00  0.4848E+00
      4.116  0.0000E+00  0.0000E+00  0.4848E+00  0.4848E+00
      4.11566172    -18.57423757  301     -2.77190309      1.00000000
    -18.574  0.0000E+00  0.0000E+00  0.0000E+00  0.0000E+00  0.0000E+00  0.0000E+00  0.0000E+00  0.0000E+00  0.0000E+00  0.0000E+00  0.0000E+00  0.0000E+00  0.0000E+00  0.0000E+00  0.0000E+00  0.0000E+00  0.0000E+00  0.0000E+00
    -18.499  0.0000E+00  0.0000E+00  0.0000E+00  0.0000E+00  0.0000E+00  0.0000E+00  0.0000E+00  0.0000E+00  0.0000E+00  0.0000E+00  0.0000E+00  0.0000E+00  0.0000E+00  0.0000E+00  0.0000E+00  0.0000E+00  0.0000E+00  0.0000E+00
    -18.423  0.0000E+00  0.0000E+00  0.0000E+00  0.0000E+00  0.0000E+00  0.0000E+00  0.0000E+00  0.0000E+00  0.0000E+00  0.0000E+00  0.0000E+00  0.0000E+00  0.0000E+00  0.0000E+00  0.0000E+00  0.0000E+00  0.0000E+00  0.0000E+00
    -18.347  0.0000E+00  0.0000E+00  0.0000E+00  0.0000E+00  0.0000E+00  0.0000E+00  0.0000E+00  0.0000E+00  0.0000E+00  0.0000E+00  0.0000E+00  0.0000E+00  0.0000E+00  0.0000E+00  0.0000E+00  0.0000E+00  0.0000E+00  0.0000E+00
    -18.272  0.0000E+00  0.0000E+00  0.0000E+00  0.0000E+00  0.0000E+00  0.0000E+00  0.0000E+00  0.0000E+00  0.0000E+00  0.0000E+00  0.0000E+00  0.0000E+00  0.0000E+00  0.0000E+00  0.0000E+00  0.0000E+00  0.0000E+00  0.0000E+00
    -18.196  0.0000E+00  0.0000E+00  0.0000E+00  0.0000E+00  0.0000E+00  0.0000E+00  0.0000E+00  0.0000E+00  0.0000E+00  0.0000E+00  0.0000E+00  0.0000E+00  0.0000E+00  0.0000E+00  0.0000E+00  0.0000E+00  0.0000E+00  0.0000E+00
    -18.120  0.0000E+00  0.0000E+00  0.0000E+00  0.0000E+00  0.0000E+00  0.0000E+00  0.0000E+00  0.0000E+00  0.0000E+00  0.0000E+00  0.0000E+00  0.0000E+00  0.0000E+00  0.0000E+00  0.0000E+00  0.0000E+00  0.0000E+00  0.0000E+00
    -18.045  0.0000E+00  0.0000E+00  0.0000E+00  0.0000E+00  0.0000E+00  0.0000E+00  0.0000E+00  0.0000E+00  0.0000E+00  0.0000E+00  0.0000E+00  0.0000E+00  0.0000E+00  0.0000E+00  0.0000E+00  0.0000E+00  0.0000E+00  0.0000E+00
    -17.969  0.0000E+00  0.0000E+00  0.0000E+00  0.0000E+00  0.0000E+00  0.0000E+00  0.0000E+00  0.0000E+00  0.0000E+00  0.0000E+00  0.0000E+00  0.0000E+00  0.0000E+00  0.0000E+00  0.0000E+00  0.0000E+00  0.0000E+00  0.0000E+00
    -17.894  0.0000E+00  0.0000E+00  0.0000E+00  0.0000E+00  0.0000E+00  0.0000E+00  0.0000E+00  0.0000E+00  0.0000E+00  0.0000E+00  0.0000E+00  0.0000E+00  0.0000E+00  0.0000E+00  0.0000E+00  0.0000E+00  0.0000E+00  0.0000E+00
    -17.818  0.0000E+00  0.0000E+00  0.0000E+00  0.0000E+00  0.0000E+00  0.0000E+00  0.0000E+00  0.0000E+00  0.0000E+00  0.0000E+00  0.0000E+00  0.0000E+00  0.0000E+00  0.0000E+00  0.0000E+00  0.0000E+00  0.0000E+00  0.0000E+00
    -17.742  0.0000E+00  0.0000E+00  0.0000E+00  0.0000E+00  0.0000E+00  0.0000E+00  0.0000E+00  0.0000E+00  0.0000E+00  0.0000E+00  0.0000E+00  0.0000E+00  0.0000E+00  0.0000E+00  0.0000E+00  0.0000E+00  0.0000E+00  0.0000E+00
    -17.667  0.0000E+00  0.0000E+00  0.0000E+00  0.0000E+00  0.0000E+00  0.0000E+00  0.0000E+00  0.0000E+00  0.0000E+00  0.0000E+00  0.0000E+00  0.0000E+00  0.0000E+00  0.0000E+00  0.0000E+00  0.0000E+00  0.0000E+00  0.0000E+00
    -17.591  0.0000E+00  0.0000E+00  0.0000E+00  0.0000E+00  0.0000E+00  0.0000E+00  0.0000E+00  0.0000E+00  0.0000E+00  0.0000E+00  0.0000E+00  0.0000E+00  0.0000E+00  0.0000E+00  0.0000E+00  0.0000E+00  0.0000E+00  0.0000E+00
    -17.515  0.6419E-02  0.6419E-02  0.2912E-04  0.2912E-04  0.4479E-08  0.4479E-08  0.8744E-04  0.8743E-04  0.2626E-05  0.2626E-05  0.5803E-06  0.5802E-06  0.3262E-05  0.3262E-05  0.1963E-06  0.1963E-06  0.8733E-06  0.8733E-06
    -17.440  0.2388E-01  0.2388E-01  0.1358E-03  0.1358E-03  0.1694E-07  0.1694E-07  0.4077E-03  0.4077E-03  0.1225E-04  0.1225E-04  0.2706E-05  0.2706E-05  0.1262E-04  0.1262E-04  0.9156E-06  0.9156E-06  0.4072E-05  0.4072E-05
    -17.364  0.1683E-01  0.1683E-01  0.1271E-03  0.1271E-03  0.2093E-06  0.2093E-06  0.8661E-03  0.8661E-03  0.2652E-04  0.2652E-04  0.4628E-05  0.4628E-05  0.1168E-04  0.1168E-04  0.9830E-05  0.9830E-05  0.1289E-04  0.1289E-04
    -17.288  0.1796E-01  0.1796E-01  0.1741E-03  0.1741E-03  0.2654E-06  0.2654E-06  0.1142E-02  0.1142E-02  0.3848E-04  0.3848E-04  0.9116E-05  0.9116E-05  0.1364E-04  0.1364E-04  0.1364E-04  0.1364E-04  0.1801E-04  0.1801E-04
    -17.213  0.1907E-01  0.1907E-01  0.2300E-03  0.2300E-03  0.3133E-06  0.3133E-06  0.1424E-02  0.1424E-02  0.5131E-04  0.5131E-04  0.1429E-04  0.1429E-04  0.1566E-04  0.1566E-04  0.1732E-04  0.1732E-04  0.2325E-04  0.2325E-04
    -17.137  0.2015E-01  0.2015E-01  0.2947E-03  0.2947E-03  0.3529E-06  0.3529E-06  0.1711E-02  0.1711E-02  0.6502E-04  0.6502E-04  0.2015E-04  0.2015E-04  0.1774E-04  0.1774E-04  0.2089E-04  0.2089E-04  0.2860E-04  0.2860E-04
    -17.062  0.1933E-01  0.1933E-01  0.4546E-03  0.4546E-03  0.2125E-05  0.2125E-05  0.1904E-02  0.1904E-02  0.1235E-03  0.1235E-03  0.4304E-04  0.4304E-04  0.2139E-04  0.2139E-04  0.3200E-04  0.3200E-04  0.6098E-04  0.6098E-04
    -16.986  0.2863E-01  0.2863E-01  0.1053E-02  0.1053E-02  0.5635E-05  0.5635E-05  0.3130E-02  0.3130E-02  0.2803E-03  0.2803E-03  0.1073E-03  0.1073E-03  0.3838E-04  0.3838E-04  0.6032E-04  0.6032E-04  0.1387E-03  0.1387E-03
    -16.910  0.2429E-01  0.2429E-01  0.9263E-03  0.9263E-03  0.5731E-05  0.5731E-05  0.2615E-02  0.2615E-02  0.2600E-03  0.2600E-03  0.9834E-04  0.9834E-04  0.3379E-04  0.3379E-04  0.5568E-04  0.5568E-04  0.1321E-03  0.1321E-03
    -16.835  0.1989E-01  0.1989E-01  0.7866E-03  0.7866E-03  0.5540E-05  0.5540E-05  0.2105E-02  0.2105E-02  0.2325E-03  0.2325E-03  0.8691E-04  0.8691E-04  0.2876E-04  0.2876E-04  0.4962E-04  0.4962E-04  0.1209E-03  0.1209E-03
    -16.759  0.1542E-01  0.1542E-01  0.6336E-03  0.6336E-03  0.5061E-05  0.5061E-05  0.1599E-02  0.1599E-02  0.1978E-03  0.1978E-03  0.7302E-04  0.7302E-04  0.2327E-04  0.2327E-04  0.4215E-04  0.4215E-04  0.1053E-03  0.1053E-03
    -16.683  0.1088E-01  0.1088E-01  0.4672E-03  0.4672E-03  0.4294E-05  0.4294E-05  0.1098E-02  0.1098E-02  0.1560E-03  0.1560E-03  0.5667E-04  0.5667E-04  0.1733E-04  0.1733E-04  0.3327E-04  0.3327E-04  0.8514E-04  0.8514E-04
    -16.608  0.5877E-02  0.5877E-02  0.1173E-02  0.1173E-02  0.1461E-02  0.1461E-02  0.3230E-02  0.3229E-02  0.9353E-04  0.9352E-04  0.1010E-03  0.1010E-03  0.1179E-04  0.1179E-04  0.5337E-03  0.5337E-03  0.2253E-03  0.2253E-03
    -16.532  0.1137E-01  0.1137E-01  0.2017E-02  0.2017E-02  0.1466E-01  0.1466E-01  0.5567E-02  0.5567E-02  0.3188E-03  0.3188E-03  0.3978E-03  0.3978E-03  0.2437E-04  0.2437E-04  0.1366E-02  0.1366E-02  0.5611E-03  0.5611E-03
    -16.457  0.2243E-01  0.2243E-01  0.3617E-02  0.3617E-02  0.1760E-01  0.1760E-01  0.9874E-02  0.9874E-02  0.7241E-03  0.7241E-03  0.7100E-03  0.7100E-03  0.5079E-04  0.5079E-04  0.3243E-02  0.3243E-02  0.1373E-02  0.1373E-02
    -16.381  0.9452E-02  0.9452E-02  0.1631E-02  0.1631E-02  0.1247E-01  0.1247E-01  0.4161E-02  0.4161E-02  0.3236E-03  0.3236E-03  0.3318E-03  0.3318E-03  0.2163E-04  0.2163E-04  0.2606E-02  0.2606E-02  0.1052E-02  0.1052E-02
    -16.305  0.0000E+00  0.0000E+00  0.0000E+00  0.0000E+00  0.0000E+00  0.0000E+00  0.0000E+00  0.0000E+00  0.0000E+00  0.0000E+00  0.0000E+00  0.0000E+00  0.0000E+00  0.0000E+00  0.0000E+00  0.0000E+00  0.0000E+00  0.0000E+00
    -16.230  0.0000E+00  0.0000E+00  0.0000E+00  0.0000E+00  0.0000E+00  0.0000E+00  0.0000E+00  0.0000E+00  0.0000E+00  0.0000E+00  0.0000E+00  0.0000E+00  0.0000E+00  0.0000E+00  0.0000E+00  0.0000E+00  0.0000E+00  0.0000E+00
    -16.154  0.2674E-01  0.2674E-01  0.1213E-01  0.1213E-01  0.5824E-02  0.5824E-02  0.1453E-01  0.1453E-01  0.3002E-02  0.3002E-02  0.2220E-02  0.2220E-02  0.8899E-04  0.8899E-04  0.2515E-02  0.2515E-02  0.1975E-02  0.1975E-02
    -16.078  0.5987E-02  0.5987E-02  0.1732E-02  0.1732E-02  0.2077E-02  0.2077E-02  0.5592E-02  0.5592E-02  0.1097E-02  0.1097E-02  0.7667E-03  0.7667E-03  0.2149E-04  0.2149E-04  0.8356E-03  0.8356E-03  0.4833E-03  0.4833E-03
    -16.003  0.9332E-02  0.9332E-02  0.1667E-01  0.1667E-01  0.6363E-02  0.6363E-02  0.9928E-02  0.9928E-02  0.2839E-02  0.2839E-02  0.4465E-02  0.4465E-02  0.3404E-04  0.3404E-04  0.6084E-02  0.6084E-02  0.3631E-02  0.3631E-02
    -15.927  0.7536E-02  0.7536E-02  0.2331E-01  0.2331E-01  0.1521E-01  0.1521E-01  0.1251E-01  0.1251E-01  0.3844E-02  0.3844E-02  0.6712E-02  0.6712E-02  0.2873E-04  0.2873E-04  0.8410E-02  0.8410E-02  0.5281E-02  0.5281E-02
    -15.851  0.3483E-02  0.3484E-02  0.1548E-01  0.1548E-01  0.1285E-01  0.1285E-01  0.7119E-02  0.7119E-02  0.2728E-02  0.2728E-02  0.6320E-02  0.6320E-02  0.1482E-04  0.1482E-04  0.6440E-02  0.6440E-02  0.3279E-02  0.3279E-02
    -15.776  0.1698E-02  0.1698E-02  0.1730E-01  0.1730E-01  0.6777E-02  0.6777E-02  0.1157E-01  0.1157E-01  0.4543E-02  0.4543E-02  0.8114E-02  0.8114E-02  0.8719E-05  0.8719E-05  0.5280E-02  0.5280E-02  0.3860E-02  0.3860E-02
    -15.700  0.7239E-02  0.7239E-02  0.4656E-02  0.4656E-02  0.1071E-01  0.1071E-01  0.1654E-02  0.1654E-02  0.8793E-02  0.8793E-02  0.2340E-01  0.2340E-01  0.4297E-04  0.4297E-04  0.1854E-01  0.1854E-01  0.5838E-02  0.5838E-02
    -15.625  0.3487E-02  0.3487E-02  0.2699E-02  0.2699E-02  0.4632E-02  0.4632E-02  0.1387E-02  0.1387E-02  0.5278E-02  0.5278E-02  0.1480E-01  0.1480E-01  0.2098E-04  0.2098E-04  0.1479E-01  0.1479E-01  0.4591E-02  0.4591E-02
    -15.549  0.6638E-03  0.6638E-03  0.2169E-02  0.2169E-02  0.1481E-02  0.1481E-02  0.1251E-02  0.1251E-02  0.2376E-02  0.2376E-02  0.7783E-02  0.7783E-02  0.4087E-05  0.4087E-05  0.1309E-01  0.1309E-01  0.3703E-02  0.3703E-02
    -15.473  0.0000E+00  0.0000E+00  0.0000E+00  0.0000E+00  0.0000E+00  0.0000E+00  0.0000E+00  0.0000E+00  0.0000E+00  0.0000E+00  0.0000E+00  0.0000E+00  0.0000E+00  0.0000E+00  0.0000E+00  0.0000E+00  0.0000E+00  0.0000E+00
    -15.398  0.0000E+00  0.0000E+00  0.0000E+00  0.0000E+00  0.0000E+00  0.0000E+00  0.0000E+00  0.0000E+00  0.0000E+00  0.0000E+00  0.0000E+00  0.0000E+00  0.0000E+00  0.0000E+00  0.0000E+00  0.0000E+00  0.0000E+00  0.0000E+00
    -15.322  0.0000E+00  0.0000E+00  0.0000E+00  0.0000E+00  0.0000E+00  0.0000E+00  0.0000E+00  0.0000E+00  0.0000E+00  0.0000E+00  0.0000E+00  0.0000E+00  0.0000E+00  0.0000E+00  0.0000E+00  0.0000E+00  0.0000E+00  0.0000E+00
    -15.246  0.0000E+00  0.0000E+00  0.0000E+00  0.0000E+00  0.0000E+00  0.0000E+00  0.0000E+00  0.0000E+00  0.0000E+00  0.0000E+00  0.0000E+00  0.0000E+00  0.0000E+00  0.0000E+00  0.0000E+00  0.0000E+00  0.0000E+00  0.0000E+00
    -15.171  0.0000E+00  0.0000E+00  0.0000E+00  0.0000E+00  0.0000E+00  0.0000E+00  0.0000E+00  0.0000E+00  0.0000E+00  0.0000E+00  0.0000E+00  0.0000E+00  0.0000E+00  0.0000E+00  0.0000E+00  0.0000E+00  0.0000E+00  0.0000E+00
    -15.095  0.0000E+00  0.0000E+00  0.0000E+00  0.0000E+00  0.0000E+00  0.0000E+00  0.0000E+00  0.0000E+00  0.0000E+00  0.0000E+00  0.0000E+00  0.0000E+00  0.0000E+00  0.0000E+00  0.0000E+00  0.0000E+00  0.0000E+00  0.0000E+00
    -15.019  0.0000E+00  0.0000E+00  0.0000E+00  0.0000E+00  0.0000E+00  0.0000E+00  0.0000E+00  0.0000E+00  0.0000E+00  0.0000E+00  0.0000E+00  0.0000E+00  0.0000E+00  0.0000E+00  0.0000E+00  0.0000E+00  0.0000E+00  0.0000E+00
    -14.944  0.0000E+00  0.0000E+00  0.0000E+00  0.0000E+00  0.0000E+00  0.0000E+00  0.0000E+00  0.0000E+00  0.0000E+00  0.0000E+00  0.0000E+00  0.0000E+00  0.0000E+00  0.0000E+00  0.0000E+00  0.0000E+00  0.0000E+00  0.0000E+00
    -14.868  0.0000E+00  0.0000E+00  0.0000E+00  0.0000E+00  0.0000E+00  0.0000E+00  0.0000E+00  0.0000E+00  0.0000E+00  0.0000E+00  0.0000E+00  0.0000E+00  0.0000E+00  0.0000E+00  0.0000E+00  0.0000E+00  0.0000E+00  0.0000E+00
    -14.793  0.0000E+00  0.0000E+00  0.0000E+00  0.0000E+00  0.0000E+00  0.0000E+00  0.0000E+00  0.0000E+00  0.0000E+00  0.0000E+00  0.0000E+00  0.0000E+00  0.0000E+00  0.0000E+00  0.0000E+00  0.0000E+00  0.0000E+00  0.0000E+00