       N       E                     dE             d eps       ncg     rms          rms(c)
DAV:   1     0.412239495916E+03    0.41224E+03   -0.19537E+04   960   0.948E+02
DAV:   2     0.258397244827E+02   -0.38640E+03   -0.36850E+03  1488   0.195E+02
DAV:   3    -0.350866301711E+02   -0.60926E+02   -0.59086E+02  1168   0.730E+01
DAV:   4    -0.372831308922E+02   -0.21965E+01   -0.21785E+01  1248   0.177E+01
DAV:   5    -0.373312912101E+02   -0.48160E-01   -0.48138E-01  1152   0.262E+00    0.367E+01
DAV:   6    -0.857533279369E+02   -0.48422E+02   -0.59738E+02  1200   0.190E+02    0.560E+01
DAV:   7    -0.448637032057E+02    0.40890E+02   -0.61209E+01  1184   0.654E+01    0.298E+01
DAV:   8    -0.342206814622E+02    0.10643E+02   -0.14801E+01  1184   0.338E+01    0.162E+01
DAV:   9    -0.330179030745E+02    0.12028E+01   -0.25279E+00  1536   0.153E+01    0.920E+00
DAV:  10    -0.327066858084E+02    0.31122E+00   -0.78620E-01  1424   0.852E+00    0.731E+00
DAV:  11    -0.327897760425E+02   -0.83090E-01   -0.24089E-01  1152   0.242E+00    0.475E+00
DAV:  12    -0.331315139132E+02   -0.34174E+00   -0.65954E-01  1328   0.790E+00    0.400E+00
DAV:  13    -0.332335723342E+02   -0.10206E+00   -0.88672E-01  1152   0.606E+00    0.515E+00
DAV:  14    -0.331710738223E+02    0.62499E-01   -0.86777E-01  1216   0.112E+01    0.240E+00
DAV:  15    -0.331839985506E+02   -0.12925E-01   -0.20883E-01  1072   0.628E+00    0.158E+00
DAV:  16    -0.332323652837E+02   -0.48367E-01   -0.90570E-02   960   0.318E+00    0.475E-01
DAV:  17    -0.332361921617E+02   -0.38269E-02   -0.81999E-02   960   0.188E+00    0.882E-01
DAV:  18    -0.332310108926E+02    0.51813E-02   -0.21540E-02  1040   0.169E+00    0.130E-01
DAV:  19    -0.332321353852E+02   -0.11245E-02   -0.17822E-03  1088   0.368E-01    0.494E-02
DAV:  20    -0.332338354732E+02   -0.17001E-02   -0.70732E-04  1008   0.252E-01    0.118E-01
DAV:  21    -0.332350958558E+02   -0.12604E-02   -0.33396E-04   816   0.232E-01    0.456E-02
DAV:  22    -0.332351397329E+02   -0.43877E-04   -0.37493E-05   736   0.353E-02
   1 F= -.33235140E+02 E0= -.33235140E+02  d E =-.332351E+02  mag=     2.0066
       N       E                     dE             d eps       ncg     rms          rms(c)
DAV:   1    -0.967865062711E+02   -0.63551E+02   -0.61681E+02  1312   0.217E+02    0.924E+01
DAV:   2    -0.312913367576E+03   -0.21613E+03   -0.14071E+03  1488   0.406E+02    0.622E+01
DAV:   3    -0.791600429780E+02    0.23375E+03   -0.53016E+02  1152   0.116E+02    0.370E+01
DAV:   4    -0.397552474220E+02    0.39405E+02   -0.30920E+02  1296   0.203E+02    0.279E+01
DAV:   5    -0.362319353382E+02    0.35233E+01   -0.36284E+01  1248   0.392E+01    0.556E+00
DAV:   6    -0.358829111069E+02    0.34902E+00   -0.19056E+00  1328   0.900E+00    0.266E+00
DAV:   7    -0.359300712564E+02   -0.47160E-01   -0.34892E-01  1168   0.323E+00    0.171E+00
DAV:   8    -0.359262274612E+02    0.38438E-02   -0.77111E-02  1168   0.425E+00    0.606E-01
DAV:   9    -0.359327568638E+02   -0.65294E-02   -0.28117E-02  1184   0.130E+00    0.807E-01
DAV:  10    -0.359333582338E+02   -0.60137E-03   -0.22226E-03  1056   0.330E-01    0.965E-01
DAV:  11    -0.359342179443E+02   -0.85971E-03   -0.22513E-03  1184   0.630E-01    0.715E-01
DAV:  12    -0.359348685917E+02   -0.65065E-03   -0.15411E-03  1360   0.360E-01    0.710E-01
DAV:  13    -0.359341205481E+02    0.74804E-03   -0.54639E-04  1200   0.149E-01    0.715E-01
DAV:  14    -0.359326957307E+02    0.14248E-02   -0.42625E-04   960   0.184E-01    0.711E-01
DAV:  15    -0.359334066025E+02   -0.71087E-03   -0.10069E-03  1200   0.316E-01    0.666E-01
DAV:  16    -0.359308113285E+02    0.25953E-02   -0.44587E-03  1088   0.371E-01    0.605E-01
DAV:  17    -0.359290177583E+02    0.17936E-02   -0.10069E-03  1280   0.315E-01    0.535E-01
DAV:  18    -0.359281775758E+02    0.84018E-03   -0.89104E-04  1216   0.390E-01    0.381E-01
DAV:  19    -0.359272383284E+02    0.93925E-03   -0.11447E-03  1200   0.340E-01    0.239E-01
DAV:  20    -0.359267828123E+02    0.45552E-03   -0.13807E-03  1072   0.247E-01    0.118E-01
DAV:  21    -0.359265798688E+02    0.20294E-03   -0.42708E-04  1152   0.110E-01    0.767E-02
DAV:  22    -0.359261235740E+02    0.45629E-03   -0.10437E-04   864   0.668E-02    0.474E-02
DAV:  23    -0.359259666523E+02    0.15692E-03   -0.10915E-04   864   0.592E-02    0.216E-02
DAV:  24    -0.359258412583E+02    0.12539E-03   -0.39025E-05   768   0.440E-02    0.396E-03
DAV:  25    -0.359257444150E+02    0.96843E-04   -0.23022E-05   688   0.286E-02
   2 F= -.35925744E+02 E0= -.35925744E+02  d E =-.269060E+01  mag=     1.9686
       N       E                     dE             d eps       ncg     rms          rms(c)
DAV:   1    -0.368714283432E+02   -0.94559E+00   -0.10196E+01  1104   0.304E+01    0.903E+00
DAV:   2    -0.412403367343E+02   -0.43689E+01   -0.19522E+01  1056   0.757E+01    0.230E+01
DAV:   3    -0.363092398062E+02    0.49311E+01   -0.91496E+00  1136   0.413E+01    0.515E+00
DAV:   4    -0.360073007962E+02    0.30194E+00   -0.93002E-01  1136   0.108E+01    0.121E+00
DAV:   5    -0.360174884336E+02   -0.10188E-01   -0.72890E-02  1200   0.174E+00    0.127E+00
DAV:   6    -0.360197765077E+02   -0.22881E-02   -0.11128E-02  1264   0.964E-01    0.103E+00
DAV:   7    -0.360116576166E+02    0.81189E-02   -0.22079E-02  1488   0.163E+00    0.615E-01
DAV:   8    -0.360084989511E+02    0.31587E-02   -0.71736E-03  1296   0.799E-01    0.430E-01
DAV:   9    -0.360073237531E+02    0.11752E-02   -0.48277E-03  1216   0.918E-01    0.348E-01
DAV:  10    -0.360062391307E+02    0.10846E-02   -0.14985E-03  1184   0.380E-01    0.109E-01
DAV:  11    -0.360057299883E+02    0.50914E-03   -0.29557E-04   864   0.857E-02    0.101E-01
DAV:  12    -0.360044588200E+02    0.12712E-02   -0.11419E-04   752   0.876E-02    0.590E-02
DAV:  13    -0.360037678227E+02    0.69100E-03   -0.98140E-05   784   0.638E-02    0.324E-02
DAV:  14    -0.360036618707E+02    0.10595E-03   -0.54475E-05   752   0.514E-02    0.869E-03
DAV:  15    -0.360038716122E+02   -0.20974E-03   -0.54732E-05   832   0.240E-02    0.651E-03
DAV:  16    -0.360038519292E+02    0.19683E-04   -0.66667E-06   720   0.987E-03
   3 F= -.36003852E+02 E0= -.36003852E+02  d E =-.276871E+01  mag=     1.9975
       N       E                     dE             d eps       ncg     rms          rms(c)
DAV:   1    -0.361046898547E+02   -0.10082E+00   -0.52613E+00  1024   0.878E+00    0.142E+00
DAV:   2    -0.362162925160E+02   -0.11160E+00   -0.72876E-01  1296   0.105E+01    0.309E+00
DAV:   3    -0.361143746470E+02    0.10192E+00   -0.27877E-01  1104   0.924E+00    0.562E-01
DAV:   4    -0.361133622355E+02    0.10124E-02   -0.32880E-02  1056   0.814E-01    0.393E-01
DAV:   5    -0.361123790927E+02    0.98314E-03   -0.41732E-03  1040   0.914E-01    0.502E-02
DAV:   6    -0.361127556736E+02   -0.37658E-03   -0.59058E-04   992   0.156E-01    0.306E-02
DAV:   7    -0.361128500981E+02   -0.94425E-04   -0.46714E-05   752   0.406E-02
   4 F= -.36112850E+02 E0= -.36112850E+02  d E =-.108998E+00  mag=     1.9809
       N       E                     dE             d eps       ncg     rms          rms(c)
DAV:   1    -0.361640373517E+02   -0.51282E-01   -0.45874E+00   960   0.822E+00    0.133E+00
DAV:   2    -0.362643030749E+02   -0.10027E+00   -0.60342E-01  1168   0.987E+00    0.295E+00
DAV:   3    -0.361730307759E+02    0.91272E-01   -0.23343E-01  1008   0.855E+00    0.467E-01
DAV:   4    -0.361729684633E+02    0.62313E-04   -0.27540E-02  1056   0.753E-01    0.303E-01
DAV:   5    -0.361726932140E+02    0.27525E-03   -0.24272E-03  1008   0.654E-01    0.620E-02
DAV:   6    -0.361728775356E+02   -0.18432E-03   -0.37247E-04   992   0.115E-01    0.450E-02
DAV:   7    -0.361730182289E+02   -0.14069E-03   -0.36098E-05   736   0.809E-02    0.249E-02
DAV:   8    -0.361730629413E+02   -0.44712E-04   -0.37275E-05   784   0.393E-02
   5 F= -.36173063E+02 E0= -.36173063E+02  d E =-.169211E+00  mag=     1.9173
       N       E                     dE             d eps       ncg     rms          rms(c)
DAV:   1    -0.361662792256E+02    0.67390E-02   -0.18251E+01   960   0.162E+01    0.261E+00
DAV:   2    -0.365092776092E+02   -0.34300E+00   -0.23346E+00  1408   0.190E+01    0.537E+00
DAV:   3    -0.361987677957E+02    0.31051E+00   -0.84167E-01  1072   0.167E+01    0.977E-01
DAV:   4    -0.361962439460E+02    0.25238E-02   -0.12169E-01  1072   0.180E+00    0.490E-01
DAV:   5    -0.361994370969E+02   -0.31932E-02   -0.11828E-02  1136   0.120E+00    0.541E-01
DAV:   6    -0.362009684842E+02   -0.15314E-02   -0.32729E-03   976   0.510E-01    0.591E-01
DAV:   7    -0.361942508023E+02    0.67177E-02   -0.69187E-03   992   0.955E-01    0.643E-01
DAV:   8    -0.361870978564E+02    0.71529E-02   -0.43699E-03  1200   0.741E-01    0.636E-01
DAV:   9    -0.361643972517E+02    0.22701E-01   -0.16267E-02  1200   0.158E+00    0.111E+00
DAV:  10    -0.361883941711E+02   -0.23997E-01   -0.13511E-02  1072   0.158E+00    0.332E-01
DAV:  11    -0.361976553474E+02   -0.92612E-02   -0.43100E-03  1280   0.511E-01    0.341E-01
DAV:  12    -0.362054073422E+02   -0.77520E-02   -0.26820E-03  1296   0.641E-01    0.419E-01
DAV:  13    -0.362093917683E+02   -0.39844E-02   -0.78450E-03  1104   0.113E+00    0.621E-01
DAV:  14    -0.362076028785E+02    0.17889E-02   -0.36268E-03  1088   0.682E-01    0.897E-01
DAV:  15    -0.362102109574E+02   -0.26081E-02   -0.23828E-03  1024   0.556E-01    0.779E-01
DAV:  16    -0.362037446078E+02    0.64663E-02   -0.15342E-02  1024   0.161E+00    0.321E-01
DAV:  17    -0.362029130220E+02    0.83159E-03   -0.27578E-03  1280   0.391E-01    0.413E-01
DAV:  18    -0.362032814108E+02   -0.36839E-03   -0.22824E-04   960   0.205E-01    0.320E-01
DAV:  19    -0.362045529175E+02   -0.12715E-02   -0.10010E-03   992   0.371E-01    0.570E-01
DAV:  20    -0.362049472271E+02   -0.39431E-03   -0.34263E-04   912   0.170E-01    0.504E-01
DAV:  21    -0.362031698213E+02    0.17774E-02   -0.37305E-04   976   0.248E-01    0.352E-01
DAV:  22    -0.362019414385E+02    0.12284E-02   -0.36729E-04   944   0.258E-01    0.478E-01
DAV:  23    -0.362030497062E+02   -0.11083E-02   -0.35310E-04   848   0.265E-01    0.313E-01
DAV:  24    -0.362025208816E+02    0.52882E-03   -0.10612E-04   752   0.139E-01    0.393E-01
DAV:  25    -0.362029517224E+02   -0.43084E-03   -0.68025E-05   704   0.104E-01    0.330E-01
DAV:  26    -0.362030074878E+02   -0.55765E-04   -0.33471E-05   704   0.415E-02
   6 F= -.36203007E+02 E0= -.36203007E+02  d E =-.199156E+00  mag=     0.2729
       N       E                     dE             d eps       ncg     rms          rms(c)
DAV:   1    -0.362127706917E+02   -0.98190E-02   -0.17211E+00   992   0.518E+00    0.849E-01
DAV:   2    -0.362469057570E+02   -0.34135E-01   -0.20033E-01  1280   0.622E+00    0.178E+00
DAV:   3    -0.362123803764E+02    0.34525E-01   -0.87391E-02  1024   0.563E+00    0.495E-01
DAV:   4    -0.362112649340E+02    0.11154E-02   -0.10503E-02  1136   0.834E-01    0.208E-01
DAV:   5    -0.362107878758E+02    0.47706E-03   -0.90778E-04  1264   0.417E-01    0.469E-02
DAV:   6    -0.362105879270E+02    0.19995E-03   -0.20645E-04   784   0.713E-02    0.300E-02
DAV:   7    -0.362106061960E+02   -0.18269E-04   -0.42567E-05   672   0.411E-02
   7 F= -.36210606E+02 E0= -.36210606E+02  d E =-.206754E+00  mag=     0.2235
       N       E                     dE             d eps       ncg     rms          rms(c)
DAV:   1    -0.366274695475E+02   -0.41688E+00   -0.57626E+00  1216   0.208E+01    0.571E+00
DAV:   2    -0.388164911028E+02   -0.21890E+01   -0.72036E+00  1184   0.498E+01    0.170E+01
DAV:   3    -0.363974982828E+02    0.24190E+01   -0.35441E+00   976   0.322E+01    0.312E+00
DAV:   4    -0.362564039336E+02    0.14109E+00   -0.39586E-01  1136   0.690E+00    0.455E-01
DAV:   5    -0.362514541972E+02    0.49497E-02   -0.22522E-02  1200   0.810E-01    0.271E-01
DAV:   6    -0.362489347931E+02    0.25194E-02   -0.54121E-03  1488   0.626E-01    0.104E-01
DAV:   7    -0.362487407182E+02    0.19407E-03   -0.15900E-03  1136   0.268E-01    0.643E-02
DAV:   8    -0.362484275092E+02    0.31321E-03   -0.23978E-04  1056   0.704E-02    0.522E-02
DAV:   9    -0.362486447271E+02   -0.21722E-03   -0.18193E-04   944   0.887E-02    0.432E-02
DAV:  10    -0.362487378867E+02   -0.93160E-04   -0.27859E-04   992   0.101E-01
   8 F= -.36248738E+02 E0= -.36248738E+02  d E =-.381317E-01  mag=     0.0239
       N       E                     dE             d eps       ncg     rms          rms(c)
DAV:   1    -0.374313779775E+02   -0.11827E+01   -0.18559E+01  1248   0.372E+01    0.991E+00
DAV:   2    -0.445499059915E+02   -0.71185E+01   -0.22984E+01  1216   0.879E+01    0.302E+01
DAV:   3    -0.367191747455E+02    0.78307E+01   -0.10353E+01  1088   0.477E+01    0.593E+00
DAV:   4    -0.362819055072E+02    0.43727E+00   -0.13704E+00  1200   0.135E+01    0.977E-01
DAV:   5    -0.362631218201E+02    0.18784E-01   -0.97865E-02  1200   0.148E+00    0.640E-01
DAV:   6    -0.362505948864E+02    0.12527E-01   -0.20899E-02  1328   0.138E+00    0.136E-01
DAV:   7    -0.362511489639E+02   -0.55408E-03   -0.64496E-03  1008   0.587E-01    0.757E-02
DAV:   8    -0.362499811514E+02    0.11678E-02   -0.10622E-03  1168   0.174E-01    0.390E-02
DAV:   9    -0.362495157331E+02    0.46542E-03   -0.66042E-04   960   0.126E-01    0.330E-02
DAV:  10    -0.362498154726E+02   -0.29974E-03   -0.50807E-04   960   0.100E-01    0.313E-02
DAV:  11    -0.362468413127E+02    0.29742E-02   -0.29247E-03   976   0.148E-01    0.245E-02
DAV:  12    -0.362440911330E+02    0.27502E-02   -0.96941E-04  1056   0.119E-01    0.267E-02
DAV:  13    -0.362424747198E+02    0.16164E-02   -0.28933E-04  1008   0.936E-02    0.285E-02
DAV:  14    -0.362429996112E+02   -0.52489E-03   -0.33554E-04  1024   0.115E-01    0.170E-02
DAV:  15    -0.362445675158E+02   -0.15679E-02   -0.99888E-04  1072   0.898E-02    0.152E-02
DAV:  16    -0.362452112563E+02   -0.64374E-03   -0.39232E-04   976   0.652E-02    0.761E-03
DAV:  17    -0.362455040059E+02   -0.29275E-03   -0.17045E-04   848   0.491E-02    0.695E-03
DAV:  18    -0.362457795400E+02   -0.27553E-03   -0.13029E-04   832   0.412E-02    0.343E-03
DAV:  19    -0.362459750433E+02   -0.19550E-03   -0.87771E-05   816   0.308E-02    0.255E-03
DAV:  20    -0.362460626840E+02   -0.87641E-04   -0.20206E-05   752   0.182E-02
   9 F= -.36246063E+02 E0= -.36246063E+02  d E =-.354565E-01  mag=    -0.0005
       N       E                     dE             d eps       ncg     rms          rms(c)
DAV:   1    -0.364956506635E+02   -0.24968E+00   -0.33847E+00  1056   0.157E+01    0.467E+00
DAV:   2    -0.378501173634E+02   -0.13545E+01   -0.45551E+00   960   0.386E+01    0.106E+01
DAV:   3    -0.362676491000E+02    0.15825E+01   -0.26775E+00  1008   0.345E+01    0.105E+00
DAV:   4    -0.362611017611E+02    0.65473E-02   -0.38759E-01  1056   0.234E+00    0.850E-01
DAV:   5    -0.362541959432E+02    0.69058E-02   -0.14142E-02  1136   0.202E+00    0.102E-01
DAV:   6    -0.362549535808E+02   -0.75764E-03   -0.34493E-03  1152   0.459E-01    0.117E-01
DAV:   7    -0.362552460549E+02   -0.29247E-03   -0.54332E-04  1104   0.361E-01    0.385E-02
DAV:   8    -0.362558581824E+02   -0.61213E-03   -0.34590E-04   944   0.163E-01    0.266E-02
DAV:   9    -0.362566306371E+02   -0.77245E-03   -0.50723E-04  1024   0.939E-02    0.134E-02
DAV:  10    -0.362568250493E+02   -0.19441E-03   -0.16126E-04   864   0.543E-02    0.162E-02
DAV:  11    -0.362571294949E+02   -0.30445E-03   -0.45608E-04   960   0.477E-02    0.140E-02
DAV:  12    -0.362571463423E+02   -0.16847E-04   -0.12665E-04   928   0.584E-02
  10 F= -.36257146E+02 E0= -.36257146E+02  d E =-.465401E-01  mag=     0.0001
       N       E                     dE             d eps       ncg     rms          rms(c)
DAV:   1    -0.362830000030E+02   -0.25871E-01   -0.78592E-01  1072   0.434E+00    0.991E-01
DAV:   2    -0.363426055697E+02   -0.59606E-01   -0.22562E-01  1040   0.846E+00    0.256E+00
DAV:   3    -0.362750961180E+02    0.67509E-01   -0.11812E-01   992   0.699E+00    0.409E-01
DAV:   4    -0.362730804299E+02    0.20157E-02   -0.13060E-02  1040   0.883E-01    0.901E-02
DAV:   5    -0.362728425077E+02    0.23792E-03   -0.61711E-04  1360   0.202E-01    0.253E-02
DAV:   6    -0.362728231291E+02    0.19379E-04   -0.11665E-04   704   0.472E-02
  11 F= -.36272823E+02 E0= -.36272823E+02  d E =-.156768E-01  mag=     0.0001
       N       E                     dE             d eps       ncg     rms          rms(c)
DAV:   1    -0.364012064174E+02   -0.12836E+00   -0.70491E+00  1120   0.132E+01    0.292E+00
DAV:   2    -0.368565632998E+02   -0.45536E+00   -0.20104E+00  1120   0.249E+01    0.804E+00
DAV:   3    -0.363473021961E+02    0.50926E+00   -0.99082E-01  1120   0.188E+01    0.141E+00
DAV:   4    -0.363164711964E+02    0.30831E-01   -0.12094E-01  1152   0.313E+00    0.251E-01
DAV:   5    -0.363141005594E+02    0.23706E-02   -0.68813E-03  1312   0.552E-01    0.765E-02
DAV:   6    -0.363132803295E+02    0.82023E-03   -0.11893E-03  1104   0.144E-01    0.356E-02
DAV:   7    -0.363129287661E+02    0.35156E-03   -0.18223E-04   928   0.130E-01    0.313E-02
DAV:   8    -0.363127344216E+02    0.19434E-03   -0.20038E-04   896   0.914E-02    0.182E-02
DAV:   9    -0.363128181529E+02   -0.83731E-04   -0.13880E-04   864   0.502E-02
  12 F= -.36312818E+02 E0= -.36312818E+02  d E =-.556718E-01  mag=     0.0000
       N       E                     dE             d eps       ncg     rms          rms(c)
DAV:   1    -0.366751323489E+02   -0.36240E+00   -0.27743E+01  1120   0.265E+01    0.558E+00
DAV:   2    -0.387364727269E+02   -0.20613E+01   -0.75992E+00  1152   0.478E+01    0.164E+01
DAV:   3    -0.365131687131E+02    0.22233E+01   -0.33653E+00   992   0.321E+01    0.308E+00
DAV:   4    -0.363699332962E+02    0.14324E+00   -0.44454E-01  1088   0.673E+00    0.582E-01
DAV:   5    -0.363589512239E+02    0.10982E-01   -0.29841E-02  1344   0.125E+00    0.159E-01
DAV:   6    -0.363562610619E+02    0.26902E-02   -0.57920E-03  1056   0.325E-01    0.669E-02
DAV:   7    -0.363538754987E+02    0.23856E-02   -0.76339E-04  1120   0.222E-01    0.606E-02
DAV:   8    -0.363522041341E+02    0.16714E-02   -0.43811E-04   960   0.163E-01    0.349E-02
DAV:   9    -0.363519936588E+02    0.21048E-03   -0.12687E-03  1024   0.127E-01    0.360E-02
DAV:  10    -0.363504982564E+02    0.14954E-02   -0.16732E-03  1008   0.154E-01    0.277E-02
DAV:  11    -0.363459494365E+02    0.45488E-02   -0.20539E-03  1072   0.119E-01    0.267E-02
DAV:  12    -0.363452835044E+02    0.66593E-03   -0.29564E-04   944   0.949E-02    0.206E-02
DAV:  13    -0.363464276524E+02   -0.11441E-02   -0.10569E-03  1008   0.111E-01    0.231E-02
DAV:  14    -0.363469508154E+02   -0.52316E-03   -0.22769E-04   944   0.687E-02    0.209E-02
DAV:  15    -0.363478363243E+02   -0.88551E-03   -0.56339E-04   992   0.732E-02    0.125E-02
DAV:  16    -0.363483127591E+02   -0.47643E-03   -0.38513E-04   992   0.582E-02    0.956E-03
DAV:  17    -0.363485511778E+02   -0.23842E-03   -0.91010E-05   960   0.402E-02    0.714E-03
DAV:  18    -0.363488380385E+02   -0.28686E-03   -0.90445E-05   816   0.339E-02    0.334E-03
DAV:  19    -0.363489278348E+02   -0.89796E-04   -0.18178E-05   704   0.182E-02
  13 F= -.36348928E+02 E0= -.36348928E+02  d E =-.917815E-01  mag=     0.0000
       N       E                     dE             d eps       ncg     rms          rms(c)
DAV:   1    -0.363770927744E+02   -0.28255E-01   -0.37126E-01   960   0.536E+00    0.156E+00
DAV:   2    -0.365335588827E+02   -0.15647E+00   -0.51158E-01   960   0.137E+01    0.384E+00
DAV:   3    -0.363521569860E+02    0.18140E+00   -0.31369E-01  1024   0.116E+01    0.500E-01
DAV:   4    -0.363505289058E+02    0.16281E-02   -0.27313E-02  1136   0.968E-01    0.172E-01
DAV:   5    -0.363500898420E+02    0.43906E-03   -0.93362E-04  1280   0.367E-01    0.399E-02
DAV:   6    -0.363498511954E+02    0.23865E-03   -0.27846E-04   832   0.905E-02    0.137E-02
DAV:   7    -0.363499232339E+02   -0.72039E-04   -0.60186E-05   688   0.677E-02
  14 F= -.36349923E+02 E0= -.36349923E+02  d E =-.995399E-03  mag=     0.0000
       N       E                     dE             d eps       ncg     rms          rms(c)
DAV:   1    -0.364101957988E+02   -0.60345E-01   -0.86280E-01  1024   0.818E+00    0.238E+00
DAV:   2    -0.367631117332E+02   -0.35292E+00   -0.11770E+00  1024   0.207E+01    0.567E+00
DAV:   3    -0.363537177971E+02    0.40939E+00   -0.71763E-01  1024   0.178E+01    0.696E-01
DAV:   4    -0.363487232274E+02    0.49946E-02   -0.72137E-02  1008   0.133E+00    0.305E-01
DAV:   5    -0.363477351273E+02    0.98810E-03   -0.21970E-03  1216   0.674E-01    0.598E-02
DAV:   6    -0.363481401189E+02   -0.40499E-03   -0.79931E-04  1168   0.121E-01    0.170E-02
DAV:   7    -0.363483536746E+02   -0.21356E-03   -0.10917E-04   864   0.574E-02    0.115E-02
DAV:   8    -0.363487788274E+02   -0.42515E-03   -0.15768E-04   816   0.583E-02    0.140E-02
DAV:   9    -0.363492683259E+02   -0.48950E-03   -0.32396E-04   976   0.612E-02    0.887E-03
DAV:  10    -0.363494738152E+02   -0.20549E-03   -0.15958E-04   896   0.409E-02    0.777E-03
DAV:  11    -0.363496662088E+02   -0.19239E-03   -0.27972E-04   880   0.361E-02    0.476E-03
DAV:  12    -0.363496548387E+02    0.11370E-04   -0.70211E-05   896   0.276E-02
  15 F= -.36349655E+02 E0= -.36349655E+02  d E =-.727004E-03  mag=    -0.0000
       N       E                     dE             d eps       ncg     rms          rms(c)
DAV:   1    -0.363677521937E+02   -0.18086E-01   -0.22520E-01   960   0.420E+00    0.119E+00
DAV:   2    -0.364740802211E+02   -0.10633E+00   -0.30678E-01  1088   0.105E+01    0.310E+00
DAV:   3    -0.363519913175E+02    0.12209E+00   -0.17718E-01  1120   0.859E+00    0.468E-01
DAV:   4    -0.363513685191E+02    0.62280E-03   -0.17064E-02  1120   0.100E+00    0.113E-01
DAV:   5    -0.363511746600E+02    0.19386E-03   -0.58696E-04  1344   0.234E-01    0.344E-02
DAV:   6    -0.363511504525E+02    0.24208E-04   -0.11229E-04   672   0.959E-02
  16 F= -.36351150E+02 E0= -.36351150E+02  d E =-.222262E-02  mag=    -0.0000
       N       E                     dE             d eps       ncg     rms          rms(c)
DAV:   1    -0.363528205768E+02   -0.16459E-02   -0.21313E-02  1120   0.107E+00    0.267E-01
DAV:   2    -0.363564572191E+02   -0.36366E-02   -0.15468E-02  1024   0.230E+00    0.667E-01
DAV:   3    -0.363514696783E+02    0.49875E-02   -0.89994E-03   960   0.196E+00    0.109E-01
DAV:   4    -0.363520439610E+02   -0.57428E-03   -0.83507E-04   992   0.219E-01    0.316E-02
DAV:   5    -0.363520685973E+02   -0.24636E-04   -0.21671E-05   752   0.636E-02
  17 F= -.36352069E+02 E0= -.36352069E+02  d E =-.918145E-03  mag=    -0.0000
       N       E                     dE             d eps       ncg     rms          rms(c)
DAV:   1    -0.363603723180E+02   -0.83284E-02   -0.18332E-01  1184   0.296E+00    0.789E-01
DAV:   2    -0.363967255404E+02   -0.36353E-01   -0.13687E-01   992   0.683E+00    0.201E+00
DAV:   3    -0.363535730657E+02    0.43152E-01   -0.78911E-02   960   0.578E+00    0.332E-01
DAV:   4    -0.363539261214E+02   -0.35306E-03   -0.78178E-03  1088   0.676E-01    0.976E-02
DAV:   5    -0.363538044280E+02    0.12169E-03   -0.24651E-04   960   0.188E-01    0.272E-02
DAV:   6    -0.363538708422E+02   -0.66414E-04   -0.92820E-05   672   0.674E-02
  18 F= -.36353871E+02 E0= -.36353871E+02  d E =-.272039E-02  mag=    -0.0000
       N       E                     dE             d eps       ncg     rms          rms(c)
DAV:   1    -0.363540561091E+02   -0.25168E-03   -0.57493E-03  1024   0.272E-01    0.236E-02
DAV:   2    -0.363541851374E+02   -0.12903E-03   -0.34108E-04  1040   0.144E-01    0.356E-02
DAV:   3    -0.363541512478E+02    0.33890E-04   -0.45623E-05   704   0.132E-01
  19 F= -.36354151E+02 E0= -.36354151E+02  d E =-.280406E-03  mag=    -0.0000
       N       E                     dE             d eps       ncg     rms          rms(c)
DAV:   1    -0.363542240199E+02   -0.38883E-04   -0.24529E-02  1024   0.568E-01    0.555E-02
DAV:   2    -0.363545308932E+02   -0.30687E-03   -0.15065E-03  1040   0.357E-01    0.965E-02
DAV:   3    -0.363542551134E+02    0.27578E-03   -0.30889E-04   896   0.328E-01    0.361E-02
DAV:   4    -0.363544538347E+02   -0.19872E-03   -0.37577E-05   704   0.687E-02    0.108E-02
DAV:   5    -0.363546818638E+02   -0.22803E-03   -0.25387E-05   640   0.211E-02    0.303E-03
DAV:   6    -0.363547419820E+02   -0.60118E-04   -0.37739E-06   656   0.117E-02
  20 F= -.36354742E+02 E0= -.36354742E+02  d E =-.871140E-03  mag=    -0.0000
