 vasp.5.4.4.18Apr17-6-g9f103f2a35 (build May  1 2020 15:48:39) complex           
 executed on             LinuxGNU date 2020.06.19  08:41:27
 running on   16 total cores
 distrk:  each k-point on   16 cores,    1 groups
 distr:  one band on NCORES_PER_BAND=   1 cores,   16 groups


--------------------------------------------------------------------------------------------------------


 INCAR:
 POTCAR:   PAW_PBE Ni 06Sep2000                   
 POTCAR:   PAW_PBE Ge 05Jan2001                   
 POTCAR:   PAW_PBE Se 06Sep2000                   

 ----------------------------------------------------------------------------- 
|                                                                             |
|           W    W    AA    RRRRR   N    N  II  N    N   GGGG   !!!           |
|           W    W   A  A   R    R  NN   N  II  NN   N  G    G  !!!           |
|           W    W  A    A  R    R  N N  N  II  N N  N  G       !!!           |
|           W WW W  AAAAAA  RRRRR   N  N N  II  N  N N  G  GGG   !            |
|           WW  WW  A    A  R   R   N   NN  II  N   NN  G    G                |
|           W    W  A    A  R    R  N    N  II  N    N   GGGG   !!!           |
|                                                                             |
|      For optimal performance we recommend to set                            |
|        NCORE= 4 - approx SQRT( number of cores)                             |
|      NCORE specifies how many cores store one orbital (NPAR=cpu/NCORE).     |
|      This setting can  greatly improve the performance of VASP for DFT.     |
|      The default,   NCORE=1            might be grossly inefficient         |
|      on modern multi-core architectures or massively parallel machines.     |
|      Do your own testing !!!!                                               |
|      Unfortunately you need to use the default for GW and RPA calculations. |
|      (for HF NCORE is supported but not extensively tested yet)             |
|                                                                             |
 ----------------------------------------------------------------------------- 


 ----------------------------------------------------------------------------- 
|                                                                             |
|  ADVICE TO THIS USER RUNNING 'VASP/VAMP'   (HEAR YOUR MASTER'S VOICE ...):  |
|                                                                             |
|      You have switched on vdW-DFT.                                          |
|      This routine was written and supplied by Jiri Klimes.                  |
|      We recommed that you carefully read and cite the following             |
|      publication                                                            |
|      J. Klimes, D.R. Bowler, A. Michelides                                  |
|        J. Phys.: Cond Matt. 22 022201 (2010)                                |
|      J. Klimes, D.R. Bowler, A. Michelides                                  |
|        Phys. Rev. B. 83, 195131 (2011)                                      |
|      and references therein.                                                |
|                                                                             |
 ----------------------------------------------------------------------------- 

 POTCAR:   PAW_PBE Ni 06Sep2000                   
   VRHFIN =Ni:                                                                  
   LEXCH  = PE                                                                  
   EATOM  =  1077.9025 eV,   79.2236 Ry                                         
                                                                                
   TITEL  = PAW_PBE Ni 06Sep2000                                                
   LULTRA =        F    use ultrasoft PP ?                                      
   IUNSCR =        1    unscreen: 0-lin 1-nonlin 2-no                           
   RPACOR =    2.000    partial core radius                                     
   POMASS =   58.690; ZVAL   =   10.000    mass and valenz                      
   RCORE  =    2.300    outmost cutoff radius                                   
   RWIGS  =    2.430; RWIGS  =    1.286    wigner-seitz radius (au A)           
   ENMAX  =  269.533; ENMIN  =  202.150 eV                                      
   RCLOC  =    1.681    cutoff for local pot                                    
   LCOR   =        T    correct aug charges                                     
   LPAW   =        T    paw PP                                                  
   EAUG   =  544.565                                                            
   DEXC   =    -.009                                                            
   RMAX   =    2.808    core radius for proj-oper                               
   RAUG   =    1.300    factor for augmentation sphere                          
   RDEP   =    2.390    radius for radial grids                                 
   QCUT   =   -4.451; QGAM   =    8.902    optimization parameters              
                                                                                
   Description                                                                  
     l     E      TYP  RCUT    TYP  RCUT                                        
     2   .000     23  2.300                                                     
     2   .000     23  2.300                                                     
     0   .000     23  2.300                                                     
     0   .000     23  2.300                                                     
     1  -.200     23  2.300                                                     
     1   .000     23  2.300                                                     
     3   .000      7   .000                                                     
  local pseudopotential read in
  partial core-charges read in
  atomic valenz-charges read in
  non local Contribution for L=           2  read in
    real space projection operators read in
  non local Contribution for L=           2  read in
    real space projection operators read in
  non local Contribution for L=           0  read in
    real space projection operators read in
  non local Contribution for L=           0  read in
    real space projection operators read in
  non local Contribution for L=           1  read in
    real space projection operators read in
  non local Contribution for L=           1  read in
    real space projection operators read in
    PAW grid and wavefunctions read in

   number of l-projection  operators is LMAX  =           6
   number of lm-projection operators is LMMAX =          18

 POTCAR:   PAW_PBE Ge 05Jan2001                   
   VRHFIN =Ge: s2p2                                                             
   LEXCH  = PE                                                                  
   EATOM  =   104.9960 eV,    7.7170 Ry                                         
                                                                                
   TITEL  = PAW_PBE Ge 05Jan2001                                                
   LULTRA =        F    use ultrasoft PP ?                                      
   IUNSCR =        1    unscreen: 0-lin 1-nonlin 2-no                           
   RPACOR =    2.170    partial core radius                                     
   POMASS =   72.610; ZVAL   =    4.000    mass and valenz                      
   RCORE  =    2.300    outmost cutoff radius                                   
   RWIGS  =    2.300; RWIGS  =    1.217    wigner-seitz radius (au A)           
   ENMAX  =  173.807; ENMIN  =  130.355 eV                                      
   ICORE  =        3    local potential                                         
   LCOR   =        T    correct aug charges                                     
   LPAW   =        T    paw PP                                                  
   EAUG   =  385.843                                                            
   DEXC   =    -.138                                                            
   RMAX   =    3.497    core radius for proj-oper                               
   RAUG   =    1.300    factor for augmentation sphere                          
   RDEP   =    2.318    radius for radial grids                                 
   QCUT   =   -3.574; QGAM   =    7.148    optimization parameters              
                                                                                
   Description                                                                  
     l     E      TYP  RCUT    TYP  RCUT                                        
     0   .000     23  2.300                                                     
     0   .000     23  2.300                                                     
     1   .000     23  2.300                                                     
     1   .000     23  2.300                                                     
     2   .000     23  2.300                                                     
     3  -.100      7  2.300                                                     
  local pseudopotential read in
  partial core-charges read in
  atomic valenz-charges read in
  non local Contribution for L=           0  read in
    real space projection operators read in
  non local Contribution for L=           0  read in
    real space projection operators read in
  non local Contribution for L=           1  read in
    real space projection operators read in
  non local Contribution for L=           1  read in
    real space projection operators read in
  non local Contribution for L=           2  read in
    real space projection operators read in
    PAW grid and wavefunctions read in

   number of l-projection  operators is LMAX  =           5
   number of lm-projection operators is LMMAX =          13

 POTCAR:   PAW_PBE Se 06Sep2000                   
   VRHFIN =Se: s2p4                                                             
   LEXCH  = PE                                                                  
   EATOM  =   256.9644 eV,   18.8864 Ry                                         
                                                                                
   TITEL  = PAW_PBE Se 06Sep2000                                                
   LULTRA =        F    use ultrasoft PP ?                                      
   IUNSCR =        1    unscreen: 0-lin 1-nonlin 2-no                           
   RPACOR =    1.900    partial core radius                                     
   POMASS =   78.960; ZVAL   =    6.000    mass and valenz                      
   RCORE  =    2.100    outmost cutoff radius                                   
   RWIGS  =    2.200; RWIGS  =    1.164    wigner-seitz radius (au A)           
   ENMAX  =  211.534; ENMIN  =  158.651 eV                                      
   ICORE  =        3    local potential                                         
   LCOR   =        T    correct aug charges                                     
   LPAW   =        T    paw PP                                                  
   EAUG   =  446.842                                                            
   DEXC   =    -.031                                                            
   RMAX   =    3.170    core radius for proj-oper                               
   RAUG   =    1.300    factor for augmentation sphere                          
   RDEP   =    2.177    radius for radial grids                                 
   QCUT   =   -3.943; QGAM   =    7.886    optimization parameters              
                                                                                
   Description                                                                  
     l     E      TYP  RCUT    TYP  RCUT                                        
     0   .000     23  2.100                                                     
     0   .000     23  2.100                                                     
     1   .000     23  2.100                                                     
     1   .000     23  2.100                                                     
     2   .000     23  2.100                                                     
     3  -.100      7  2.100                                                     
  local pseudopotential read in
  partial core-charges read in
  atomic valenz-charges read in
  non local Contribution for L=           0  read in
    real space projection operators read in
  non local Contribution for L=           0  read in
    real space projection operators read in
  non local Contribution for L=           1  read in
    real space projection operators read in
  non local Contribution for L=           1  read in
    real space projection operators read in
  non local Contribution for L=           2  read in
    real space projection operators read in
    PAW grid and wavefunctions read in

   number of l-projection  operators is LMAX  =           5
   number of lm-projection operators is LMMAX =          13

 Optimization of the real space projectors (new method)

 maximal supplied QI-value         = 16.25
 optimisation between [QCUT,QGAM] = [ 11.54, 23.24] = [ 37.28,151.24] Ry 
 Optimized for a Real-space Cutoff    1.49 Angstroem

   l    n(q)    QCUT    max X(q) W(low)/X(q) W(high)/X(q)  e(spline) 
   2      9    11.539     4.811    0.20E-04    0.14E-04    0.45E-07
   2      9    11.539    15.146    0.24E-03    0.12E-03    0.20E-06
   0     10    11.539    14.357    0.18E-04    0.12E-05    0.14E-07
   0     10    11.539    43.282    0.39E-04    0.17E-04    0.23E-06
   1     10    11.539     5.514    0.99E-05    0.13E-04    0.19E-07
   1     10    11.539     7.697    0.38E-04    0.79E-04    0.91E-07
 Optimization of the real space projectors (new method)

 maximal supplied QI-value         = 16.25
 optimisation between [QCUT,QGAM] = [ 11.54, 23.24] = [ 37.28,151.24] Ry 
 Optimized for a Real-space Cutoff    1.28 Angstroem

   l    n(q)    QCUT    max X(q) W(low)/X(q) W(high)/X(q)  e(spline) 
   0      9    11.539     8.651    0.22E-04    0.16E-04    0.10E-07
   0      9    11.539    33.192    0.11E-03    0.16E-03    0.65E-07
   1      8    11.539     5.899    0.37E-04    0.28E-04    0.43E-07
   1      8    11.539    27.289    0.22E-03    0.28E-04    0.14E-06
   2      8    11.539     4.673    0.11E-03    0.18E-03    0.58E-07
 Optimization of the real space projectors (new method)

 maximal supplied QI-value         = 17.95
 optimisation between [QCUT,QGAM] = [ 11.67, 23.34] = [ 38.13,152.52] Ry 
 Optimized for a Real-space Cutoff    1.25 Angstroem

   l    n(q)    QCUT    max X(q) W(low)/X(q) W(high)/X(q)  e(spline) 
   0      9    11.669     6.499    0.13E-04    0.81E-05    0.11E-07
   0      9    11.669    52.623    0.18E-03    0.46E-04    0.72E-07
   1      8    11.669     4.229    0.40E-04    0.45E-04    0.31E-07
   1      8    11.669    29.991    0.22E-03    0.36E-03    0.10E-06
   2      8    11.669     3.719    0.19E-03    0.46E-04    0.50E-07

 ----------------------------------------------------------------------------- 
|                                                                             |
|  ADVICE TO THIS USER RUNNING 'VASP/VAMP'   (HEAR YOUR MASTER'S VOICE ...):  |
|                                                                             |
|      You enforced a specific xc-type in the INCAR file,                     |
|      a different type was found on the POTCAR file                          |
|          I HOPE YOU KNOW, WHAT YOU ARE  DOING                               |
|                                                                             |
 ----------------------------------------------------------------------------- 

 PAW_PBE Ni 06Sep2000                   :
 energy of atom  1       EATOM=-1077.9025
 kinetic energy error for atom=    0.0030 (will be added to EATOM!!)
 PAW_PBE Ge 05Jan2001                   :
 energy of atom  2       EATOM= -104.9960
 kinetic energy error for atom=    0.0002 (will be added to EATOM!!)
 PAW_PBE Se 06Sep2000                   :
 energy of atom  3       EATOM= -256.9644
 kinetic energy error for atom=    0.0007 (will be added to EATOM!!)


 POSCAR: Ni2 Ge2 Se6                             
  positions in direct lattice
  velocities in cartesian coordinates
  No initial velocities read in
 exchange correlation table for  LEXCH =       42
   RHO(1)=    0.500       N(1)  =     2000
   RHO(2)=  100.500       N(2)  =     4000



--------------------------------------------------------------------------------------------------------


 ion  position               nearest neighbor table
   1  0.333  0.333  0.500-   6 2.78   5 2.78   7 2.78   8 2.78  10 2.78   9 2.78
   2  0.667  0.667  0.500-   9 2.78   8 2.78  10 2.78   5 2.78   7 2.78   6 2.78
   3  0.000  0.000  0.448-   4 2.43   8 2.63  10 2.63   9 2.63
   4  0.000  0.000  0.552-   3 2.43   5 2.63   7 2.63   6 2.63
   5  0.626  0.000  0.574-   4 2.63   1 2.78   2 2.78
   6  0.000  0.373  0.574-   4 2.63   1 2.78   2 2.78
   7  0.373  0.626  0.574-   4 2.63   1 2.78   2 2.78
   8  0.374  1.000  0.426-   3 2.63   2 2.78   1 2.78
   9  1.000  0.627  0.426-   3 2.63   2 2.78   1 2.78
  10  0.627  0.374  0.426-   3 2.63   2 2.78   1 2.78

  LATTYP: Found a hexagonal cell.
 ALAT       =     6.9077769333
 C/A-ratio  =     3.3939410937
  
  Lattice vectors:
  
 A1 = (   3.4538890000,  -5.9823100000,   0.0000000000)
 A2 = (  -6.9077770000,   0.0000000000,   0.0000000000)
 A3 = (   0.0000000000,   0.0000000000, -23.4445880000)


Analysis of symmetry for initial positions (statically):
=====================================================================
 Subroutine PRICEL returns:
 Original cell was already a primitive cell.
 

 Routine SETGRP: Setting up the symmetry group for a 
 hexagonal supercell.


 Subroutine GETGRP returns: Found  6 space group operations
 (whereof  6 operations were pure point group operations)
 out of a pool of 24 trial point group operations.


The static configuration has the point symmetry S_6 .


Analysis of symmetry for dynamics (positions and initial velocities):
=====================================================================
 Subroutine PRICEL returns:
 Original cell was already a primitive cell.
 

 Routine SETGRP: Setting up the symmetry group for a 
 hexagonal supercell.


 Subroutine GETGRP returns: Found  6 space group operations
 (whereof  6 operations were pure point group operations)
 out of a pool of 24 trial point group operations.


The dynamic configuration has the point symmetry S_6 .


Analysis of constrained symmetry for selective dynamics:
=====================================================================
 Subroutine PRICEL returns:
 Original cell was already a primitive cell.
 

 Routine SETGRP: Setting up the symmetry group for a 
 hexagonal supercell.


 Subroutine GETGRP returns: Found  6 space group operations
 (whereof  6 operations were pure point group operations)
 out of a pool of 24 trial point group operations.


The constrained configuration has the point symmetry S_6 .


Analysis of structural, dynamic, and magnetic symmetry:
=====================================================================
 Subroutine PRICEL returns:
 Original cell was already a primitive cell.
 

 Routine SETGRP: Setting up the symmetry group for a 
 hexagonal supercell.


 Subroutine GETGRP returns: Found  6 space group operations
 (whereof  6 operations were pure point group operations)
 out of a pool of 24 trial point group operations.


The magnetic configuration has the point symmetry S_6 .


 Subroutine INISYM returns: Found  6 space group operations
 (whereof  6 operations are pure point group operations),
 and found     1 'primitive' translations



 KPOINTS: Kpoints from vasprun.xml                

Automatic generation of k-mesh.
Space group operators:
 irot       det(A)        alpha          n_x          n_y          n_z        tau_x        tau_y        tau_z
    1     1.000000     0.000000     1.000000     0.000000     0.000000     0.000000     0.000000     0.000000
    2    -1.000000     0.000000     1.000000     0.000000     0.000000     0.000000     0.000000     0.000000
    3     1.000000   120.000000     0.000000     0.000000     1.000000     0.000000     0.000000     0.000000
    4    -1.000000   120.000000     0.000000     0.000000     1.000000     0.000000     0.000000     0.000000
    5     1.000000   120.000000     0.000000     0.000000    -1.000000     0.000000     0.000000     0.000000
    6    -1.000000   120.000000     0.000000     0.000000    -1.000000     0.000000     0.000000     0.000000
 
 Subroutine IBZKPT returns following result:
 ===========================================
 
 Found      5 irreducible k-points:
 
 Following reciprocal coordinates:
            Coordinates               Weight
  0.000000  0.000000  0.000000      1.000000
  0.200000  0.000000  0.000000      6.000000
  0.400000  0.000000  0.000000      6.000000
  0.400000  0.200000  0.000000      6.000000
 -0.400000  0.200000  0.000000      6.000000
 
 Following cartesian coordinates:
            Coordinates               Weight
  0.000000  0.000000  0.000000      1.000000
  0.028953 -0.016716  0.000000      6.000000
  0.057906 -0.033432  0.000000      6.000000
  0.057906  0.000000  0.000000      6.000000
 -0.057906  0.066864  0.000000      6.000000
 
 TETIRR: Found     15 inequivalent tetrahedra from      150


--------------------------------------------------------------------------------------------------------




 Dimension of arrays:
   k-points           NKPTS =      5   k-points in BZ     NKDIM =      5   number of bands    NBANDS=     48
   number of dos      NEDOS =    301   number of ions     NIONS =     10
   non local maximal  LDIM  =      6   non local SUM 2l+1 LMDIM =     18
   total plane-waves  NPLWV = 524880
   max r-space proj   IRMAX =   7543   max aug-charges    IRDMAX=  29641
   dimension x,y,z NGX =    54 NGY =   54 NGZ =  180
   dimension x,y,z NGXF=   108 NGYF=  108 NGZF=  360
   support grid    NGXF=   108 NGYF=  108 NGZF=  360
   ions per type =               2   2   6
   NGX,Y,Z   is equivalent  to a cutoff of  13.00, 13.00, 12.76 a.u.
   NGXF,Y,Z  is equivalent  to a cutoff of  25.99, 25.99, 25.53 a.u.

 SYSTEM =  unknown system                          
 POSCAR =  Ni2 Ge2 Se6                             

 Startparameter for this run:
   NWRITE =      2    write-flag & timer
   PREC   = accura    normal or accurate (medium, high low for compatibility)
   ISTART =      0    job   : 0-new  1-cont  2-samecut
   ICHARG =      2    charge: 1-file 2-atom 10-const
   ISPIN  =      2    spin polarized calculation?
   LNONCOLLINEAR =      F non collinear calculations
   LSORBIT =      F    spin-orbit coupling
   INIWAV =      1    electr: 0-lowe 1-rand  2-diag
   LASPH  =      F    aspherical Exc in radial PAW
   METAGGA=      F    non-selfconsistent MetaGGA calc.

 Electronic Relaxation 1
   ENCUT  =  520.0 eV  38.22 Ry    6.18 a.u.  12.84 12.84 43.59*2*pi/ulx,y,z
   ENINI  =  520.0     initial cutoff
   ENAUG  =  544.6 eV  augmentation charge cutoff
   NELM   =    400;   NELMIN=  2; NELMDL=  0     # of ELM steps 
   EDIFF  = 0.1E-03   stopping-criterion for ELM
   LREAL  =      T    real-space projection
   NLSPLINE    = F    spline interpolate recip. space projectors
   LCOMPAT=      F    compatible to vasp.4.4
   GGA_COMPAT  = T    GGA compatible to vasp.4.4-vasp.4.6
   LMAXPAW     = -100 max onsite density
   LMAXMIX     =    2 max onsite mixed and CHGCAR
   VOSKOWN=      0    Vosko Wilk Nusair interpolation
   ROPT   =   -0.00025  -0.00025  -0.00025
 Ionic relaxation
   EDIFFG = 0.1E-02   stopping-criterion for IOM
   NSW    =     99    number of steps for IOM
   NBLOCK =      1;   KBLOCK =     99    inner block; outer block 
   IBRION =      2    ionic relax: 0-MD 1-quasi-New 2-CG
   NFREE  =      1    steps in history (QN), initial steepest desc. (CG)
   ISIF   =      3    stress and relaxation
   IWAVPR =     11    prediction:  0-non 1-charg 2-wave 3-comb
   ISYM   =      2    0-nonsym 1-usesym 2-fastsym
   LCORR  =      T    Harris-Foulkes like correction to forces

   POTIM  = 0.5000    time-step for ionic-motion
   TEIN   =    0.0    initial temperature
   TEBEG  =    0.0;   TEEND  =   0.0 temperature during run
   SMASS  =  -3.00    Nose mass-parameter (am)
   estimated Nose-frequenzy (Omega)   =  0.10E-29 period in steps =****** mass=  -0.109E-26a.u.
   SCALEE = 1.0000    scale energy and forces
   NPACO  =    256;   APACO  = 16.0  distance and # of slots for P.C.
   PSTRESS=    0.0 pullay stress

  Mass of Ions in am
   POMASS =  58.69 72.61 78.96
  Ionic Valenz
   ZVAL   =  10.00  4.00  6.00
  Atomic Wigner-Seitz radii
   RWIGS  =  -1.00 -1.00 -1.00
  virtual crystal weights 
   VCA    =   1.00  1.00  1.00
   NELECT =      64.0000    total number of electrons
   NUPDOWN=      -1.0000    fix difference up-down

 DOS related values:
   EMIN   =  10.00;   EMAX   =-10.00  energy-range for DOS
   EFERMI =   0.00
   ISMEAR =    -5;   SIGMA  =   0.05  broadening in eV -4-tet -1-fermi 0-gaus

 Electronic relaxation 2 (details)
   IALGO  =     38    algorithm
   LDIAG  =      T    sub-space diagonalisation (order eigenvalues)
   LSUBROT=      F    optimize rotation matrix (better conditioning)
   TURBO    =      0    0=normal 1=particle mesh
   IRESTART =      0    0=no restart 2=restart with 2 vectors
   NREBOOT  =      0    no. of reboots
   NMIN     =      0    reboot dimension
   EREF     =   0.00    reference energy to select bands
   IMIX   =      4    mixing-type and parameters
     AMIX     =   0.40;   BMIX     =  1.00
     AMIX_MAG =   1.60;   BMIX_MAG =  1.00
     AMIN     =   0.01
     WC   =   100.;   INIMIX=   1;  MIXPRE=   1;  MAXMIX= -45

 Intra band minimization:
   WEIMIN = 0.0010     energy-eigenvalue tresh-hold
   EBREAK =  0.52E-06  absolut break condition
   DEPER  =   0.30     relativ break condition  

   TIME   =   0.40     timestep for ELM

  volume/ion in A,a.u.               =      96.88       653.80
  Fermi-wavevector in a.u.,A,eV,Ry     =   0.661787  1.250596  5.958835  0.437962
  Thomas-Fermi vector in A             =   1.734655

 Write flags
   LWAVE        =      F    write WAVECAR
   LDOWNSAMPLE  =      F    k-point downsampling of WAVECAR
   LCHARG       =      T    write CHGCAR
   LVTOT        =      F    write LOCPOT, total local potential
   LVHAR        =      F    write LOCPOT, Hartree potential only
   LELF         =      F    write electronic localiz. function (ELF)
   LORBIT       =     11    0 simple, 1 ext, 2 COOP (PROOUT), +10 PAW based schemes


 Dipole corrections
   LMONO  =      F    monopole corrections only (constant potential shift)
   LDIPOL =      F    correct potential (dipole corrections)
   IDIPOL =      0    1-x, 2-y, 3-z, 4-all directions 
   EPSILON=  1.0000000 bulk dielectric constant

 Exchange correlation treatment:
   GGA     =    BO    GGA type
   LEXCH   =    42    internal setting for exchange type
   VOSKOWN=      0    Vosko Wilk Nusair interpolation
   LHFCALC =     F    Hartree Fock is set to
   LHFONE  =     F    Hartree Fock one center treatment
   AEXX    =    0.0000 exact exchange contribution

 vdW DFT:
   LUSE_VDW   =     T    switch on vdW DFT
   Zab_VDW    =-.8491    correlation parameter
   PARAM1     =0.1833
   PARAM2     =0.2200
   PARAM3     =0.0000
   -- rVV10 --
   BPARAM     = 6.3000
   CPARAM     = 0.0093

 Linear response parameters
   LEPSILON=     F    determine dielectric tensor
   LRPA    =     F    only Hartree local field effects (RPA)
   LNABLA  =     F    use nabla operator in PAW spheres
   LVEL    =     F    velocity operator in full k-point grid
   LINTERFAST=   F  fast interpolation
   KINTER  =     0    interpolate to denser k-point grid
   CSHIFT  =0.1000    complex shift for real part using Kramers Kronig
   OMEGAMAX=  -1.0    maximum frequency
   DEG_THRESHOLD= 0.2000000E-02 threshold for treating states as degnerate
   RTIME   =   -0.100 relaxation time in fs
  (WPLASMAI=    0.000 imaginary part of plasma frequency in eV, 0.658/RTIME)
   DFIELD  = 0.0000000 0.0000000 0.0000000 field for delta impulse in time

 Orbital magnetization related:
   ORBITALMAG=     F  switch on orbital magnetization
   LCHIMAG   =     F  perturbation theory with respect to B field
   DQ        =  0.001000  dq finite difference perturbation B field
   LLRAUG    =     F  two centre corrections for induced B field



--------------------------------------------------------------------------------------------------------


 conjugate gradient relaxation of ions
   using selective dynamics as specified on POSCAR
 charge density and potential will be updated during run
 spin polarized calculation
 Variant of blocked Davidson
 Davidson routine will perform the subspace rotation
 perform sub-space diagonalisation
    after iterative eigenvector-optimisation
 modified Broyden-mixing scheme, WC =      100.0
 initial mixing is a Kerker type mixing with AMIX =  0.4000 and BMIX =      1.0000
 Hartree-type preconditioning will be used
 using additional bands           16
 real space projection scheme for non local part
 use partial core corrections
 calculate Harris-corrections to forces   (improved forces if not selfconsistent)
 use gradient corrections 
 use of overlap-Matrix (Vanderbilt PP)
 Fermi weights with tetrahedron method with Bloechl corrections


--------------------------------------------------------------------------------------------------------


  energy-cutoff  :      520.00
  volume of cell :      968.84
      direct lattice vectors                 reciprocal lattice vectors
     6.907777000 -0.000000000  0.000000000     0.144764372 -0.083579742  0.000000000
     3.453888000  5.982310000  0.000000000     0.000000000  0.167159509 -0.000000000
     0.000000000  0.000000000 23.444588000    -0.000000000  0.000000000  0.042653767

  length of vectors
     6.907777000  6.907776433 23.444588000     0.167159495  0.167159509  0.042653767



 k-points in units of 2pi/SCALE and weight: Kpoints from vasprun.xml                
   0.00000000  0.00000000  0.00000000       0.040
   0.02895287 -0.01671595  0.00000000       0.240
   0.05790575 -0.03343190  0.00000000       0.240
   0.05790575  0.00000000  0.00000000       0.240
  -0.05790575  0.06686380  0.00000000       0.240

 k-points in reciprocal lattice and weights: Kpoints from vasprun.xml                
   0.00000000  0.00000000  0.00000000       0.040
   0.20000000  0.00000000  0.00000000       0.240
   0.40000000  0.00000000  0.00000000       0.240
   0.40000000  0.20000000  0.00000000       0.240
  -0.40000000  0.20000000  0.00000000       0.240

 position of ions in fractional coordinates (direct lattice) 
   0.33333300  0.33333300  0.49992500
   0.66666700  0.66666700  0.50007500
   0.00000000  0.00000000  0.44821600
   0.00000000  0.00000000  0.55178400
   0.62635700  0.00042000  0.57375200
   0.00042000  0.37322400  0.57375200
   0.37322400  0.62635700  0.57375200
   0.37364300  0.99958000  0.42624800
   0.99958000  0.62677600  0.42624800
   0.62677600  0.37364300  0.42624800

 position of ions in cartesian coordinates  (Angst):
   3.45388488  1.99410134 11.72053566
   6.90778012  3.98820866 11.72405234
   0.00000000  0.00000000 10.50823946
   0.00000000  0.00000000 12.93634854
   4.32818511  0.00251257 13.45137925
   1.29197516  2.23274167 13.45137925
   4.74151509  3.74706174 13.45137925
   6.03347989  5.97979743  9.99320875
   9.06968984  3.74956833  9.99320875
   5.62014991  2.23524826  9.99320875



--------------------------------------------------------------------------------------------------------


 k-point  1 :   0.0000 0.0000 0.0000  plane waves:   26073
 k-point  2 :   0.2000 0.0000 0.0000  plane waves:   26070
 k-point  3 :   0.4000 0.0000 0.0000  plane waves:   26086
 k-point  4 :   0.4000 0.2000 0.0000  plane waves:   26085
 k-point  5 :  -0.4000 0.2000 0.0000  plane waves:   26115

 maximum and minimum number of plane-waves per node :     26115    26070

 maximum number of plane-waves:     26115
 maximum index in each direction: 
   IXMAX=   13   IYMAX=   12   IZMAX=   43
   IXMIN=  -13   IYMIN=  -13   IZMIN=  -43


 serial   3D FFT for wavefunctions
 parallel 3D FFT for charge:
    minimum data exchange during FFTs selected (reduces bandwidth)


 total amount of memory used by VASP MPI-rank0   127894. kBytes
=======================================================================

   base      :      30000. kBytes
   nonlr-proj:       7584. kBytes
   fftplans  :      11247. kBytes
   grid      :      66142. kBytes
   one-center:        311. kBytes
   wavefun   :      12610. kBytes

     INWAV:  cpu time    0.0000: real time    0.0000
 Broyden mixing: mesh for mixing (old mesh)
   NGX = 25   NGY = 25   NGZ = 87
  (NGX  =108   NGY  =108   NGZ  =360)
  gives a total of  54375 points

 initial charge density was supplied:
 charge density of overlapping atoms calculated
 number of electron      64.0000000 magnetization       7.3200000
 keeping initial charge density in first step


--------------------------------------------------------------------------------------------------------


 Maximum index for non-local projection operator         7247
 Maximum index for augmentation-charges         2133 (set IRDMAX)


--------------------------------------------------------------------------------------------------------


 First call to EWALD:  gamma=   0.179
 Maximum number of real-space cells 4x 4x 1
 Maximum number of reciprocal cells 2x 2x 6

    FEWALD:  cpu time    0.0040: real time    0.0014


--------------------------------------- Iteration      1(   1)  ---------------------------------------


vdW kernel read from vdw_kernel.bindat
  0.0000  0.2424  0.5071  0.7962  1.1119  1.4567  1.8333  2.2446  2.6937  3.1842
  3.7199  4.3049  4.9438  5.6415  6.4036  7.2358  8.1446  9.1372 10.2212 11.4050
 12.6979 14.1099 15.6519 17.3360 19.1751 21.1837 23.3773 25.7729 28.3892 31.2465
 34.3669 37.7748 41.4965 45.5611 50.0000

    POTLOK:  cpu time   52.3520: real time   52.6822
    SETDIJ:  cpu time    0.0560: real time    0.0557
     EDDAV:  cpu time   22.5560: real time   22.8066
 BZINTS: Fermi energy:  4.365839; 64.000000 electrons
         Band energy: -47.121503;  BLOECHL correction: -0.040412
       DOS:  cpu time    0.0080: real time    0.0050
    --------------------------------------------
      LOOP:  cpu time   74.9720: real time   75.5496

 eigenvalue-minimisations  :   960
 total energy-change (2. order) : 0.4122395E+03  (-0.1953670E+04)
 number of electron      64.0000000 magnetization       7.3200000
 augmentation part       64.0000000 magnetization       7.3200000

 Free energy of the ion-electron system (eV)
  ---------------------------------------------------
  alpha Z        PSCENC =        42.65598769
  Ewald energy   TEWEN  =      8065.03639907
  -Hartree energ DENC   =    -11593.22773585
  -exchange      EXHF   =         0.00000000
  -V(xc)+E(xc)   XCENC  =        34.48163655
  PAW double counting   =      2459.05297163    -2474.59114635
  entropy T*S    EENTRO =         0.00000000
  eigenvalues    EBANDS =       -47.12150339
  atomic energy  EATOM  =      3925.95288657
  Solvation  Ediel_sol  =         0.00000000
  ---------------------------------------------------
  free energy    TOTEN  =       412.23949592 eV

  energy without entropy =      412.23949592  energy(sigma->0) =      412.23949592


--------------------------------------------------------------------------------------------------------




--------------------------------------- Iteration      1(   2)  ---------------------------------------


     EDDAV:  cpu time   33.9440: real time   34.0954
 BZINTS: Fermi energy: -2.296274; 64.000000 electrons
         Band energy:-433.521275;  BLOECHL correction: -0.003005
       DOS:  cpu time    0.0080: real time    0.0049
    --------------------------------------------
      LOOP:  cpu time   33.9520: real time   34.1003

 eigenvalue-minimisations  :  1488
 total energy-change (2. order) :-0.3863998E+03  (-0.3685019E+03)
 number of electron      64.0000000 magnetization       7.3200000
 augmentation part       64.0000000 magnetization       7.3200000

 Free energy of the ion-electron system (eV)
  ---------------------------------------------------
  alpha Z        PSCENC =        42.65598769
  Ewald energy   TEWEN  =      8065.03639907
  -Hartree energ DENC   =    -11593.22773585
  -exchange      EXHF   =         0.00000000
  -V(xc)+E(xc)   XCENC  =        34.48163655
  PAW double counting   =      2459.05297163    -2474.59114635
  entropy T*S    EENTRO =         0.00000000
  eigenvalues    EBANDS =      -433.52127482
  atomic energy  EATOM  =      3925.95288657
  Solvation  Ediel_sol  =         0.00000000
  ---------------------------------------------------
  free energy    TOTEN  =        25.83972448 eV

  energy without entropy =       25.83972448  energy(sigma->0) =       25.83972448


--------------------------------------------------------------------------------------------------------




--------------------------------------- Iteration      1(   3)  ---------------------------------------


     EDDAV:  cpu time   27.2080: real time   27.2310
 BZINTS: Fermi energy: -2.890431; 64.000000 electrons
         Band energy:-494.447629;  BLOECHL correction: -0.011284
       DOS:  cpu time    0.0040: real time    0.0052
    --------------------------------------------
      LOOP:  cpu time   27.2120: real time   27.2363

 eigenvalue-minimisations  :  1168
 total energy-change (2. order) :-0.6092635E+02  (-0.5908571E+02)
 number of electron      64.0000000 magnetization       7.3200000
 augmentation part       64.0000000 magnetization       7.3200000

 Free energy of the ion-electron system (eV)
  ---------------------------------------------------
  alpha Z        PSCENC =        42.65598769
  Ewald energy   TEWEN  =      8065.03639907
  -Hartree energ DENC   =    -11593.22773585
  -exchange      EXHF   =         0.00000000
  -V(xc)+E(xc)   XCENC  =        34.48163655
  PAW double counting   =      2459.05297163    -2474.59114635
  entropy T*S    EENTRO =         0.00000000
  eigenvalues    EBANDS =      -494.44762947
  atomic energy  EATOM  =      3925.95288657
  Solvation  Ediel_sol  =         0.00000000
  ---------------------------------------------------
  free energy    TOTEN  =       -35.08663017 eV

  energy without entropy =      -35.08663017  energy(sigma->0) =      -35.08663017


--------------------------------------------------------------------------------------------------------




--------------------------------------- Iteration      1(   4)  ---------------------------------------


     EDDAV:  cpu time   28.6880: real time   28.9460
 BZINTS: Fermi energy: -2.912783; 64.000000 electrons
         Band energy:-496.644130;  BLOECHL correction: -0.010314
       DOS:  cpu time    0.0080: real time    0.0047
    --------------------------------------------
      LOOP:  cpu time   28.6960: real time   28.9507

 eigenvalue-minimisations  :  1248
 total energy-change (2. order) :-0.2196501E+01  (-0.2178463E+01)
 number of electron      64.0000000 magnetization       7.3200000
 augmentation part       64.0000000 magnetization       7.3200000

 Free energy of the ion-electron system (eV)
  ---------------------------------------------------
  alpha Z        PSCENC =        42.65598769
  Ewald energy   TEWEN  =      8065.03639907
  -Hartree energ DENC   =    -11593.22773585
  -exchange      EXHF   =         0.00000000
  -V(xc)+E(xc)   XCENC  =        34.48163655
  PAW double counting   =      2459.05297163    -2474.59114635
  entropy T*S    EENTRO =         0.00000000
  eigenvalues    EBANDS =      -496.64413020
  atomic energy  EATOM  =      3925.95288657
  Solvation  Ediel_sol  =         0.00000000
  ---------------------------------------------------
  free energy    TOTEN  =       -37.28313089 eV

  energy without entropy =      -37.28313089  energy(sigma->0) =      -37.28313089


--------------------------------------------------------------------------------------------------------




--------------------------------------- Iteration      1(   5)  ---------------------------------------


     EDDAV:  cpu time   26.5920: real time   26.7594
 BZINTS: Fermi energy: -2.913184; 64.000000 electrons
         Band energy:-496.692291;  BLOECHL correction: -0.010329
       DOS:  cpu time    0.0040: real time    0.0053
    CHARGE:  cpu time    2.0680: real time    2.1393
    MIXING:  cpu time    0.0400: real time    0.0422
    --------------------------------------------
      LOOP:  cpu time   28.7040: real time   28.9462

 eigenvalue-minimisations  :  1152
 total energy-change (2. order) :-0.4816032E-01  (-0.4813821E-01)
 number of electron      63.9999994 magnetization       7.2992364
 augmentation part        0.0762206 magnetization       4.8214196

 Broyden mixing:
  rms(total) = 0.36731E+01    rms(broyden)= 0.36730E+01
  rms(prec ) = 0.39085E+01
  weight for this iteration     100.00

 Free energy of the ion-electron system (eV)
  ---------------------------------------------------
  alpha Z        PSCENC =        42.65598769
  Ewald energy   TEWEN  =      8065.03639907
  -Hartree energ DENC   =    -11593.22773585
  -exchange      EXHF   =         0.00000000
  -V(xc)+E(xc)   XCENC  =        34.48163655
  PAW double counting   =      2459.05297163    -2474.59114635
  entropy T*S    EENTRO =         0.00000000
  eigenvalues    EBANDS =      -496.69229051
  atomic energy  EATOM  =      3925.95288657
  Solvation  Ediel_sol  =         0.00000000
  ---------------------------------------------------
  free energy    TOTEN  =       -37.33129121 eV

  energy without entropy =      -37.33129121  energy(sigma->0) =      -37.33129121


--------------------------------------------------------------------------------------------------------




--------------------------------------- Iteration      1(   6)  ---------------------------------------


    POTLOK:  cpu time   51.9000: real time   52.3078
    SETDIJ:  cpu time    0.0520: real time    0.0520
     EDDAV:  cpu time   27.6200: real time   27.7679
 BZINTS: Fermi energy: -4.269208; 64.000000 electrons
         Band energy:-762.373495;  BLOECHL correction: -0.025418
       DOS:  cpu time    0.0200: real time    0.0188
    CHARGE:  cpu time    2.1200: real time    2.1239
    MIXING:  cpu time    0.0400: real time    0.0424
    --------------------------------------------
      LOOP:  cpu time   81.7520: real time   82.3128

 eigenvalue-minimisations  :  1200
 total energy-change (2. order) :-0.4842204E+02  (-0.5973768E+02)
 number of electron      63.9999992 magnetization       7.0006416
 augmentation part        8.6421532 magnetization       6.7956491

 Broyden mixing:
  rms(total) = 0.56043E+01    rms(broyden)= 0.56042E+01
  rms(prec ) = 0.58389E+01
  weight for this iteration     100.00

 eigenvalues of (default mixing * dielectric matrix)
  average eigenvalue GAMMA=   0.3662
  0.3662

 Free energy of the ion-electron system (eV)
  ---------------------------------------------------
  alpha Z        PSCENC =        42.65598769
  Ewald energy   TEWEN  =      8065.03639907
  -Hartree energ DENC   =    -11406.29186145
  -exchange      EXHF   =         0.00000000
  -V(xc)+E(xc)   XCENC  =        33.40622776
  PAW double counting   =      2164.74080321    -2148.88027580
  entropy T*S    EENTRO =         0.00000000
  eigenvalues    EBANDS =      -762.37349499
  atomic energy  EATOM  =      3925.95288657
  Solvation  Ediel_sol  =         0.00000000
  ---------------------------------------------------
  free energy    TOTEN  =       -85.75332794 eV

  energy without entropy =      -85.75332794  energy(sigma->0) =      -85.75332794


--------------------------------------------------------------------------------------------------------




--------------------------------------- Iteration      1(   7)  ---------------------------------------


    POTLOK:  cpu time   51.5040: real time   51.7040
    SETDIJ:  cpu time    0.0520: real time    0.0521
     EDDAV:  cpu time   26.2720: real time   27.4018
 BZINTS: Fermi energy: -4.391334; 63.983917 electrons
         Band energy:-602.686655;  BLOECHL correction: -0.038725
       DOS:  cpu time    0.0040: real time    0.0087
    CHARGE:  cpu time    2.1240: real time    2.1452
    MIXING:  cpu time    0.0360: real time    0.0410
    --------------------------------------------
      LOOP:  cpu time   79.9920: real time   81.3528

 eigenvalue-minimisations  :  1184
 total energy-change (2. order) : 0.4088962E+02  (-0.6120912E+01)
 number of electron      63.9839158 magnetization       6.8026902
 augmentation part        7.5694679 magnetization       5.3540866

 Broyden mixing:
  rms(total) = 0.29768E+01    rms(broyden)= 0.29768E+01
  rms(prec ) = 0.31655E+01
  weight for this iteration     100.00

 eigenvalues of (default mixing * dielectric matrix)
  average eigenvalue GAMMA=   0.4723
  0.4723  0.4723

 Free energy of the ion-electron system (eV)
  ---------------------------------------------------
  alpha Z        PSCENC =        42.65598769
  Ewald energy   TEWEN  =      8065.03639907
  -Hartree energ DENC   =    -11498.18778695
  -exchange      EXHF   =         0.00000000
  -V(xc)+E(xc)   XCENC  =        32.55928853
  PAW double counting   =      2327.61335762    -2337.80718082
  entropy T*S    EENTRO =         0.00000000
  eigenvalues    EBANDS =      -602.68665493
  atomic energy  EATOM  =      3925.95288657
  Solvation  Ediel_sol  =         0.00000000
  ---------------------------------------------------
  free energy    TOTEN  =       -44.86370321 eV

  energy without entropy =      -44.86370321  energy(sigma->0) =      -44.86370321


--------------------------------------------------------------------------------------------------------




--------------------------------------- Iteration      1(   8)  ---------------------------------------


    POTLOK:  cpu time   50.3640: real time   52.2372
    SETDIJ:  cpu time    0.0440: real time    0.0472
     EDDAV:  cpu time   27.2880: real time   27.4501
 BZINTS: Fermi energy: -4.324177; 64.000000 electrons
         Band energy:-541.832536;  BLOECHL correction: -0.014061
       DOS:  cpu time    0.0040: real time    0.0066
    CHARGE:  cpu time    2.1080: real time    2.1101
    MIXING:  cpu time    0.0400: real time    0.0451
    --------------------------------------------
      LOOP:  cpu time   79.8480: real time   81.8963

 eigenvalue-minimisations  :  1184
 total energy-change (2. order) : 0.1064302E+02  (-0.1480077E+01)
 number of electron      63.9999992 magnetization       6.6593065
 augmentation part        6.0865319 magnetization       5.2066524

 Broyden mixing:
  rms(total) = 0.16158E+01    rms(broyden)= 0.16157E+01
  rms(prec ) = 0.17068E+01
  weight for this iteration     100.00

 eigenvalues of (default mixing * dielectric matrix)
  average eigenvalue GAMMA=   0.4885
  0.5518  0.5518  0.3618

 Free energy of the ion-electron system (eV)
  ---------------------------------------------------
  alpha Z        PSCENC =        42.65598769
  Ewald energy   TEWEN  =      8065.03639907
  -Hartree energ DENC   =    -11542.30001528
  -exchange      EXHF   =         0.00000000
  -V(xc)+E(xc)   XCENC  =        33.53569670
  PAW double counting   =      2403.55969258    -2420.82879280
  entropy T*S    EENTRO =         0.00000000
  eigenvalues    EBANDS =      -541.83253599
  atomic energy  EATOM  =      3925.95288657
  Solvation  Ediel_sol  =         0.00000000
  ---------------------------------------------------
  free energy    TOTEN  =       -34.22068146 eV

  energy without entropy =      -34.22068146  energy(sigma->0) =      -34.22068146


--------------------------------------------------------------------------------------------------------




--------------------------------------- Iteration      1(   9)  ---------------------------------------


    POTLOK:  cpu time   51.2720: real time   51.3428
    SETDIJ:  cpu time    0.0440: real time    0.0474
     EDDAV:  cpu time   33.9680: real time   34.1276
 BZINTS: Fermi energy: -4.231134; 64.000000 electrons
         Band energy:-527.062798;  BLOECHL correction: -0.009421
       DOS:  cpu time    0.0040: real time    0.0069
    CHARGE:  cpu time    2.1240: real time    2.1268
    MIXING:  cpu time    0.0400: real time    0.0423
    --------------------------------------------
      LOOP:  cpu time   87.4520: real time   87.6936

 eigenvalue-minimisations  :  1536
 total energy-change (2. order) : 0.1202778E+01  (-0.2527850E+00)
 number of electron      63.9999992 magnetization       6.8071060
 augmentation part        5.1945932 magnetization       5.7563714

 Broyden mixing:
  rms(total) = 0.91974E+00    rms(broyden)= 0.91959E+00
  rms(prec ) = 0.95885E+00
  weight for this iteration     100.00

 eigenvalues of (default mixing * dielectric matrix)
  average eigenvalue GAMMA=   0.4624
  0.5847  0.5847  0.4339  0.2461

 Free energy of the ion-electron system (eV)
  ---------------------------------------------------
  alpha Z        PSCENC =        42.65598769
  Ewald energy   TEWEN  =      8065.03639907
  -Hartree energ DENC   =    -11555.47816987
  -exchange      EXHF   =         0.00000000
  -V(xc)+E(xc)   XCENC  =        33.80133574
  PAW double counting   =      2428.61019777    -2446.53374168
  entropy T*S    EENTRO =         0.00000000
  eigenvalues    EBANDS =      -527.06279836
  atomic energy  EATOM  =      3925.95288657
  Solvation  Ediel_sol  =         0.00000000
  ---------------------------------------------------
  free energy    TOTEN  =       -33.01790307 eV

  energy without entropy =      -33.01790307  energy(sigma->0) =      -33.01790307


--------------------------------------------------------------------------------------------------------




--------------------------------------- Iteration      1(  10)  ---------------------------------------


    POTLOK:  cpu time   50.6840: real time   51.0263
    SETDIJ:  cpu time    0.0440: real time    0.0451
     EDDAV:  cpu time   31.5440: real time   31.7480
 BZINTS: Fermi energy: -4.188496; 64.000000 electrons
         Band energy:-520.431361;  BLOECHL correction: -0.009277
       DOS:  cpu time    0.0040: real time    0.0074
    CHARGE:  cpu time    2.1320: real time    2.1302
    MIXING:  cpu time    0.0400: real time    0.0432
    --------------------------------------------
      LOOP:  cpu time   84.4480: real time   85.0001

 eigenvalue-minimisations  :  1424
 total energy-change (2. order) : 0.3112173E+00  (-0.7862014E-01)
 number of electron      63.9999992 magnetization       6.0495628
 augmentation part        4.6348106 magnetization       5.2220625

 Broyden mixing:
  rms(total) = 0.73071E+00    rms(broyden)= 0.73063E+00
  rms(prec ) = 0.74121E+00
  weight for this iteration     100.00

 eigenvalues of (default mixing * dielectric matrix)
  average eigenvalue GAMMA=   0.6970
  0.8886  0.8886  0.5188  0.5944  0.5944

 Free energy of the ion-electron system (eV)
  ---------------------------------------------------
  alpha Z        PSCENC =        42.65598769
  Ewald energy   TEWEN  =      8065.03639907
  -Hartree energ DENC   =    -11561.37069581
  -exchange      EXHF   =         0.00000000
  -V(xc)+E(xc)   XCENC  =        34.02106546
  PAW double counting   =      2437.74460090    -2456.31556837
  entropy T*S    EENTRO =         0.00000000
  eigenvalues    EBANDS =      -520.43136133
  atomic energy  EATOM  =      3925.95288657
  Solvation  Ediel_sol  =         0.00000000
  ---------------------------------------------------
  free energy    TOTEN  =       -32.70668581 eV

  energy without entropy =      -32.70668581  energy(sigma->0) =      -32.70668581


--------------------------------------------------------------------------------------------------------




--------------------------------------- Iteration      1(  11)  ---------------------------------------


    POTLOK:  cpu time   50.7400: real time   50.9020
    SETDIJ:  cpu time    0.0480: real time    0.0467
     EDDAV:  cpu time   26.3080: real time   26.5305
 BZINTS: Fermi energy: -4.110765; 64.000000 electrons
         Band energy:-517.176820;  BLOECHL correction: -0.007523
       DOS:  cpu time    0.0040: real time    0.0073
    CHARGE:  cpu time    2.1680: real time    2.1735
    MIXING:  cpu time    0.0440: real time    0.0431
    --------------------------------------------
      LOOP:  cpu time   79.3120: real time   79.7031

 eigenvalue-minimisations  :  1152
 total energy-change (2. order) :-0.8309023E-01  (-0.2408859E-01)
 number of electron      63.9999991 magnetization       5.0020009
 augmentation part        4.5404082 magnetization       4.2254840

 Broyden mixing:
  rms(total) = 0.47460E+00    rms(broyden)= 0.47458E+00
  rms(prec ) = 0.47926E+00
  weight for this iteration     100.00

 eigenvalues of (default mixing * dielectric matrix)
  average eigenvalue GAMMA=   0.8904
  1.5001  1.5001  0.5807  0.5807  0.5905  0.5905

 Free energy of the ion-electron system (eV)
  ---------------------------------------------------
  alpha Z        PSCENC =        42.65598769
  Ewald energy   TEWEN  =      8065.03639907
  -Hartree energ DENC   =    -11566.43607400
  -exchange      EXHF   =         0.00000000
  -V(xc)+E(xc)   XCENC  =        33.95652724
  PAW double counting   =      2453.02010431    -2469.79878737
  entropy T*S    EENTRO =         0.00000000
  eigenvalues    EBANDS =      -517.17681956
  atomic energy  EATOM  =      3925.95288657
  Solvation  Ediel_sol  =         0.00000000
  ---------------------------------------------------
  free energy    TOTEN  =       -32.78977604 eV

  energy without entropy =      -32.78977604  energy(sigma->0) =      -32.78977604


--------------------------------------------------------------------------------------------------------




--------------------------------------- Iteration      1(  12)  ---------------------------------------


    POTLOK:  cpu time   50.5680: real time   51.0888
    SETDIJ:  cpu time    0.0480: real time    0.0461
     EDDAV:  cpu time   29.7320: real time   30.0670
 BZINTS: Fermi energy: -3.882920; 64.000000 electrons
         Band energy:-507.325632;  BLOECHL correction: -0.005432
       DOS:  cpu time    0.0080: real time    0.0076
    CHARGE:  cpu time    2.0640: real time    2.1286
    MIXING:  cpu time    0.0480: real time    0.0474
    --------------------------------------------
      LOOP:  cpu time   82.4680: real time   83.3855

 eigenvalue-minimisations  :  1328
 total energy-change (2. order) :-0.3417379E+00  (-0.6595438E-01)
 number of electron      63.9999991 magnetization       4.5265733
 augmentation part        3.9506979 magnetization       3.8659585

 Broyden mixing:
  rms(total) = 0.40006E+00    rms(broyden)= 0.39992E+00
  rms(prec ) = 0.43031E+00
  weight for this iteration     100.00

 eigenvalues of (default mixing * dielectric matrix)
  average eigenvalue GAMMA=   0.9746
  1.8627  1.8627  0.5763  0.5763  0.6971  0.6971  0.5500

 Free energy of the ion-electron system (eV)
  ---------------------------------------------------
  alpha Z        PSCENC =        42.65598769
  Ewald energy   TEWEN  =      8065.03639907
  -Hartree energ DENC   =    -11577.81011672
  -exchange      EXHF   =         0.00000000
  -V(xc)+E(xc)   XCENC  =        34.15848810
  PAW double counting   =      2477.39932048    -2493.19884723
  entropy T*S    EENTRO =         0.00000000
  eigenvalues    EBANDS =      -507.32563187
  atomic energy  EATOM  =      3925.95288657
  Solvation  Ediel_sol  =         0.00000000
  ---------------------------------------------------
  free energy    TOTEN  =       -33.13151391 eV

  energy without entropy =      -33.13151391  energy(sigma->0) =      -33.13151391


--------------------------------------------------------------------------------------------------------




--------------------------------------- Iteration      1(  13)  ---------------------------------------


    POTLOK:  cpu time   50.8520: real time   50.9943
    SETDIJ:  cpu time    0.0480: real time    0.0479
     EDDAV:  cpu time   25.9960: real time   26.2952
 BZINTS: Fermi energy: -3.804661; 64.000000 electrons
         Band energy:-504.941543;  BLOECHL correction: -0.005149
       DOS:  cpu time    0.0080: real time    0.0069
    CHARGE:  cpu time    2.1160: real time    2.1182
    MIXING:  cpu time    0.0440: real time    0.0448
    --------------------------------------------
      LOOP:  cpu time   79.0640: real time   79.5073

 eigenvalue-minimisations  :  1152
 total energy-change (2. order) :-0.1020584E+00  (-0.8867223E-01)
 number of electron      63.9999991 magnetization       3.6804359
 augmentation part        3.7646649 magnetization       2.9282154

 Broyden mixing:
  rms(total) = 0.51514E+00    rms(broyden)= 0.51513E+00
  rms(prec ) = 0.55541E+00
  weight for this iteration     100.00

 eigenvalues of (default mixing * dielectric matrix)
  average eigenvalue GAMMA=   1.0544
  2.3781  1.8250  0.5782  0.5782  0.9313  0.9313  0.6065  0.6065

 Free energy of the ion-electron system (eV)
  ---------------------------------------------------
  alpha Z        PSCENC =        42.65598769
  Ewald energy   TEWEN  =      8065.03639907
  -Hartree energ DENC   =    -11578.67432983
  -exchange      EXHF   =         0.00000000
  -V(xc)+E(xc)   XCENC  =        34.16288778
  PAW double counting   =      2475.45648084    -2492.88234107
  entropy T*S    EENTRO =         0.00000000
  eigenvalues    EBANDS =      -504.94154339
  atomic energy  EATOM  =      3925.95288657
  Solvation  Ediel_sol  =         0.00000000
  ---------------------------------------------------
  free energy    TOTEN  =       -33.23357233 eV

  energy without entropy =      -33.23357233  energy(sigma->0) =      -33.23357233


--------------------------------------------------------------------------------------------------------




--------------------------------------- Iteration      1(  14)  ---------------------------------------


    POTLOK:  cpu time   50.7480: real time   50.9880
    SETDIJ:  cpu time    0.0440: real time    0.0470
     EDDAV:  cpu time   27.5920: real time   27.7312
 BZINTS: Fermi energy: -3.968880; 64.000000 electrons
         Band energy:-514.287983;  BLOECHL correction: -0.003657
       DOS:  cpu time    0.0080: real time    0.0075
    CHARGE:  cpu time    2.1640: real time    2.1661
    MIXING:  cpu time    0.0480: real time    0.0481
    --------------------------------------------
      LOOP:  cpu time   80.6040: real time   80.9880

 eigenvalue-minimisations  :  1216
 total energy-change (2. order) : 0.6249851E-01  (-0.8677687E-01)
 number of electron      63.9999992 magnetization       3.3657116
 augmentation part        4.7297908 magnetization       2.2781194

 Broyden mixing:
  rms(total) = 0.24008E+00    rms(broyden)= 0.23966E+00
  rms(prec ) = 0.26252E+00
  weight for this iteration     100.00

 eigenvalues of (default mixing * dielectric matrix)
  average eigenvalue GAMMA=   1.0390
  2.8049  1.7410  0.5733  0.5733  0.7911  0.7911  0.7731  0.6057  0.6981

 Free energy of the ion-electron system (eV)
  ---------------------------------------------------
  alpha Z        PSCENC =        42.65598769
  Ewald energy   TEWEN  =      8065.03639907
  -Hartree energ DENC   =    -11568.91844929
  -exchange      EXHF   =         0.00000000
  -V(xc)+E(xc)   XCENC  =        33.81322936
  PAW double counting   =      2456.89589169    -2474.31903615
  entropy T*S    EENTRO =         0.00000000
  eigenvalues    EBANDS =      -514.28798276
  atomic energy  EATOM  =      3925.95288657
  Solvation  Ediel_sol  =         0.00000000
  ---------------------------------------------------
  free energy    TOTEN  =       -33.17107382 eV

  energy without entropy =      -33.17107382  energy(sigma->0) =      -33.17107382


--------------------------------------------------------------------------------------------------------




--------------------------------------- Iteration      1(  15)  ---------------------------------------


    POTLOK:  cpu time   50.9920: real time   51.0075
    SETDIJ:  cpu time    0.0480: real time    0.0473
     EDDAV:  cpu time   24.4520: real time   24.7036
 BZINTS: Fermi energy: -3.844068; 64.000000 electrons
         Band energy:-508.435500;  BLOECHL correction: -0.005707
       DOS:  cpu time    0.0040: real time    0.0075
    CHARGE:  cpu time    2.1200: real time    2.1196
    MIXING:  cpu time    0.0480: real time    0.0490
    --------------------------------------------
      LOOP:  cpu time   77.6640: real time   77.9346

 eigenvalue-minimisations  :  1072
 total energy-change (2. order) :-0.1292473E-01  (-0.2088339E-01)
 number of electron      63.9999991 magnetization       2.5120724
 augmentation part        4.2729836 magnetization       1.6155120

 Broyden mixing:
  rms(total) = 0.15826E+00    rms(broyden)= 0.15817E+00
  rms(prec ) = 0.16456E+00
  weight for this iteration     100.00

 eigenvalues of (default mixing * dielectric matrix)
  average eigenvalue GAMMA=   1.3333
  4.6986  2.5278  1.0579  1.0579  0.5747  0.5747  0.8195  0.8195  0.6013  0.6013

 Free energy of the ion-electron system (eV)
  ---------------------------------------------------
  alpha Z        PSCENC =        42.65598769
  Ewald energy   TEWEN  =      8065.03639907
  -Hartree energ DENC   =    -11575.03722775
  -exchange      EXHF   =         0.00000000
  -V(xc)+E(xc)   XCENC  =        33.99193458
  PAW double counting   =      2467.22233302    -2484.57081148
  entropy T*S    EENTRO =         0.00000000
  eigenvalues    EBANDS =      -508.43550024
  atomic energy  EATOM  =      3925.95288657
  Solvation  Ediel_sol  =         0.00000000
  ---------------------------------------------------
  free energy    TOTEN  =       -33.18399855 eV

  energy without entropy =      -33.18399855  energy(sigma->0) =      -33.18399855


--------------------------------------------------------------------------------------------------------




--------------------------------------- Iteration      1(  16)  ---------------------------------------


    POTLOK:  cpu time   50.7640: real time   51.0505
    SETDIJ:  cpu time    0.0480: real time    0.0490
     EDDAV:  cpu time   22.2520: real time   22.4403
 BZINTS: Fermi energy: -3.868561; 64.000000 electrons
         Band energy:-508.949375;  BLOECHL correction: -0.004208
       DOS:  cpu time    0.0040: real time    0.0081
    CHARGE:  cpu time    2.1160: real time    2.1174
    MIXING:  cpu time    0.0480: real time    0.0471
    --------------------------------------------
      LOOP:  cpu time   75.2320: real time   75.7125

 eigenvalue-minimisations  :   960
 total energy-change (2. order) :-0.4836673E-01  (-0.9057035E-02)
 number of electron      63.9999991 magnetization       2.1142883
 augmentation part        4.4334753 magnetization       1.2721724

 Broyden mixing:
  rms(total) = 0.47504E-01    rms(broyden)= 0.47473E-01
  rms(prec ) = 0.48138E-01
  weight for this iteration     100.00

 eigenvalues of (default mixing * dielectric matrix)
  average eigenvalue GAMMA=   1.5378
  7.3627  2.4048  0.5743  0.5743  1.0924  1.0924  0.9292  0.9292  0.5870  0.6851
  0.6851

 Free energy of the ion-electron system (eV)
  ---------------------------------------------------
  alpha Z        PSCENC =        42.65598769
  Ewald energy   TEWEN  =      8065.03639907
  -Hartree energ DENC   =    -11575.08345207
  -exchange      EXHF   =         0.00000000
  -V(xc)+E(xc)   XCENC  =        33.97248138
  PAW double counting   =      2466.04621270    -2482.86350609
  entropy T*S    EENTRO =         0.00000000
  eigenvalues    EBANDS =      -508.94937454
  atomic energy  EATOM  =      3925.95288657
  Solvation  Ediel_sol  =         0.00000000
  ---------------------------------------------------
  free energy    TOTEN  =       -33.23236528 eV

  energy without entropy =      -33.23236528  energy(sigma->0) =      -33.23236528


--------------------------------------------------------------------------------------------------------




--------------------------------------- Iteration      1(  17)  ---------------------------------------


    POTLOK:  cpu time   50.9040: real time   51.0060
    SETDIJ:  cpu time    0.0440: real time    0.0463
     EDDAV:  cpu time   22.4000: real time   22.4238
 BZINTS: Fermi energy: -3.837290; 64.000000 electrons
         Band energy:-507.278914;  BLOECHL correction: -0.004876
       DOS:  cpu time    0.0080: real time    0.0072
    CHARGE:  cpu time    2.1440: real time    2.1488
    MIXING:  cpu time    0.0480: real time    0.0482
    --------------------------------------------
      LOOP:  cpu time   75.5480: real time   75.6802

 eigenvalue-minimisations  :   960
 total energy-change (2. order) :-0.3826878E-02  (-0.8199927E-02)
 number of electron      63.9999991 magnetization       2.0192320
 augmentation part        4.3084250 magnetization       1.2769482

 Broyden mixing:
  rms(total) = 0.88183E-01    rms(broyden)= 0.88138E-01
  rms(prec ) = 0.96880E-01
  weight for this iteration     100.00

 eigenvalues of (default mixing * dielectric matrix)
  average eigenvalue GAMMA=   1.6229
  8.8533  2.5322  0.5745  0.5745  1.0047  1.0047  1.0810  1.0810  0.8499  0.5926
  0.6368  0.6901

 Free energy of the ion-electron system (eV)
  ---------------------------------------------------
  alpha Z        PSCENC =        42.65598769
  Ewald energy   TEWEN  =      8065.03639907
  -Hartree energ DENC   =    -11577.04183195
  -exchange      EXHF   =         0.00000000
  -V(xc)+E(xc)   XCENC  =        33.98019295
  PAW double counting   =      2468.78066239    -2485.32157444
  entropy T*S    EENTRO =         0.00000000
  eigenvalues    EBANDS =      -507.27891445
  atomic energy  EATOM  =      3925.95288657
  Solvation  Ediel_sol  =         0.00000000
  ---------------------------------------------------
  free energy    TOTEN  =       -33.23619216 eV

  energy without entropy =      -33.23619216  energy(sigma->0) =      -33.23619216


--------------------------------------------------------------------------------------------------------




--------------------------------------- Iteration      1(  18)  ---------------------------------------


    POTLOK:  cpu time   50.4920: real time   50.8083
    SETDIJ:  cpu time    0.0480: real time    0.0468
     EDDAV:  cpu time   23.9000: real time   24.1027
 BZINTS: Fermi energy: -3.861011; 64.000000 electrons
         Band energy:-508.724418;  BLOECHL correction: -0.003421
       DOS:  cpu time    0.0040: real time    0.0082
    CHARGE:  cpu time    2.0440: real time    2.1178
    MIXING:  cpu time    0.0480: real time    0.0498
    --------------------------------------------
      LOOP:  cpu time   76.5360: real time   77.1335

 eigenvalue-minimisations  :  1040
 total energy-change (2. order) : 0.5181269E-02  (-0.2153979E-02)
 number of electron      63.9999991 magnetization       2.0177847
 augmentation part        4.4380152 magnetization       1.2192489

 Broyden mixing:
  rms(total) = 0.12967E-01    rms(broyden)= 0.12855E-01
  rms(prec ) = 0.13574E-01
  weight for this iteration     100.00

 eigenvalues of (default mixing * dielectric matrix)
  average eigenvalue GAMMA=   1.5999
  9.0153  2.5840  1.2553  1.2553  0.5744  0.5744  0.9882  0.9882  0.9943  0.6786
  0.6786  0.5876  0.6250

 Free energy of the ion-electron system (eV)
  ---------------------------------------------------
  alpha Z        PSCENC =        42.65598769
  Ewald energy   TEWEN  =      8065.03639907
  -Hartree energ DENC   =    -11575.38744507
  -exchange      EXHF   =         0.00000000
  -V(xc)+E(xc)   XCENC  =        33.91719813
  PAW double counting   =      2465.36056511    -2482.04218437
  entropy T*S    EENTRO =         0.00000000
  eigenvalues    EBANDS =      -508.72441802
  atomic energy  EATOM  =      3925.95288657
  Solvation  Ediel_sol  =         0.00000000
  ---------------------------------------------------
  free energy    TOTEN  =       -33.23101089 eV

  energy without entropy =      -33.23101089  energy(sigma->0) =      -33.23101089


--------------------------------------------------------------------------------------------------------




--------------------------------------- Iteration      1(  19)  ---------------------------------------


    POTLOK:  cpu time   50.6640: real time   50.9284
    SETDIJ:  cpu time    0.0480: real time    0.0487
     EDDAV:  cpu time   24.9880: real time   25.0677
 BZINTS: Fermi energy: -3.855322; 64.000000 electrons
         Band energy:-508.605743;  BLOECHL correction: -0.003428
       DOS:  cpu time    0.0040: real time    0.0079
    CHARGE:  cpu time    2.1160: real time    2.1189
    MIXING:  cpu time    0.0960: real time    0.0970
    --------------------------------------------
      LOOP:  cpu time   77.9160: real time   78.2687

 eigenvalue-minimisations  :  1088
 total energy-change (2. order) :-0.1124493E-02  (-0.1782208E-03)
 number of electron      63.9999991 magnetization       2.0112792
 augmentation part        4.4230426 magnetization       1.2087588

 Broyden mixing:
  rms(total) = 0.49376E-02    rms(broyden)= 0.49345E-02
  rms(prec ) = 0.55249E-02
  weight for this iteration     100.00

 eigenvalues of (default mixing * dielectric matrix)
  average eigenvalue GAMMA=   1.5856
  9.1727  2.6402  1.5063  1.5063  0.5744  0.5744  1.0279  1.0279  0.8454  0.8454
  0.6572  0.6572  0.5815  0.5815

 Free energy of the ion-electron system (eV)
  ---------------------------------------------------
  alpha Z        PSCENC =        42.65598769
  Ewald energy   TEWEN  =      8065.03639907
  -Hartree energ DENC   =    -11575.47252793
  -exchange      EXHF   =         0.00000000
  -V(xc)+E(xc)   XCENC  =        33.91729879
  PAW double counting   =      2465.53710823    -2482.25354525
  entropy T*S    EENTRO =         0.00000000
  eigenvalues    EBANDS =      -508.60574256
  atomic energy  EATOM  =      3925.95288657
  Solvation  Ediel_sol  =         0.00000000
  ---------------------------------------------------
  free energy    TOTEN  =       -33.23213539 eV

  energy without entropy =      -33.23213539  energy(sigma->0) =      -33.23213539


--------------------------------------------------------------------------------------------------------




--------------------------------------- Iteration      1(  20)  ---------------------------------------


    POTLOK:  cpu time   50.5920: real time   50.7800
    SETDIJ:  cpu time    0.0440: real time    0.0465
     EDDAV:  cpu time   23.2320: real time   23.3653
 BZINTS: Fermi energy: -3.858905; 64.000000 electrons
         Band energy:-508.847944;  BLOECHL correction: -0.003445
       DOS:  cpu time    0.0080: real time    0.0075
    CHARGE:  cpu time    2.1440: real time    2.1474
    MIXING:  cpu time    0.0560: real time    0.0534
    --------------------------------------------
      LOOP:  cpu time   76.0760: real time   76.4000

 eigenvalue-minimisations  :  1008
 total energy-change (2. order) :-0.1700088E-02  (-0.7073211E-04)
 number of electron      63.9999991 magnetization       2.0066909
 augmentation part        4.4422430 magnetization       1.1945504

 Broyden mixing:
  rms(total) = 0.11809E-01    rms(broyden)= 0.11803E-01
  rms(prec ) = 0.13046E-01
  weight for this iteration     100.00

 eigenvalues of (default mixing * dielectric matrix)
  average eigenvalue GAMMA=   1.5876
  9.2590  2.4732  2.4732  0.5744  0.5744  1.1062  1.1062  0.9529  0.9529  0.9149
  0.9149  0.6630  0.6630  0.5926  0.5926

 Free energy of the ion-electron system (eV)
  ---------------------------------------------------
  alpha Z        PSCENC =        42.65598769
  Ewald energy   TEWEN  =      8065.03639907
  -Hartree energ DENC   =    -11575.21149119
  -exchange      EXHF   =         0.00000000
  -V(xc)+E(xc)   XCENC  =        33.90417298
  PAW double counting   =      2465.16471054    -2481.88855700
  entropy T*S    EENTRO =         0.00000000
  eigenvalues    EBANDS =      -508.84794413
  atomic energy  EATOM  =      3925.95288657
  Solvation  Ediel_sol  =         0.00000000
  ---------------------------------------------------
  free energy    TOTEN  =       -33.23383547 eV

  energy without entropy =      -33.23383547  energy(sigma->0) =      -33.23383547


--------------------------------------------------------------------------------------------------------




--------------------------------------- Iteration      1(  21)  ---------------------------------------


    POTLOK:  cpu time   50.6160: real time   50.9912
    SETDIJ:  cpu time    0.0480: real time    0.0490
     EDDAV:  cpu time   19.8960: real time   20.0210
 BZINTS: Fermi energy: -3.854469; 64.000000 electrons
         Band energy:-508.623655;  BLOECHL correction: -0.003808
       DOS:  cpu time    0.0080: real time    0.0075
    CHARGE:  cpu time    2.1560: real time    2.1622
    MIXING:  cpu time    0.0560: real time    0.0544
    --------------------------------------------
      LOOP:  cpu time   72.7800: real time   73.2854

 eigenvalue-minimisations  :   816
 total energy-change (2. order) :-0.1260383E-02  (-0.3339556E-04)
 number of electron      63.9999991 magnetization       2.0072240
 augmentation part        4.4240777 magnetization       1.1984471

 Broyden mixing:
  rms(total) = 0.45576E-02    rms(broyden)= 0.45528E-02
  rms(prec ) = 0.50307E-02
  weight for this iteration     100.00

 eigenvalues of (default mixing * dielectric matrix)
  average eigenvalue GAMMA=   1.4952
  9.2516  2.4042  2.4042  0.5744  0.5744  1.1129  1.1129  1.1147  0.9158  0.9158
  0.8213  0.6802  0.6802  0.5910  0.6202  0.1486

 Free energy of the ion-electron system (eV)
  ---------------------------------------------------
  alpha Z        PSCENC =        42.65598769
  Ewald energy   TEWEN  =      8065.03639907
  -Hartree energ DENC   =    -11575.44444274
  -exchange      EXHF   =         0.00000000
  -V(xc)+E(xc)   XCENC  =        33.90865493
  PAW double counting   =      2465.63872400    -2482.35965031
  entropy T*S    EENTRO =         0.00000000
  eigenvalues    EBANDS =      -508.62365506
  atomic energy  EATOM  =      3925.95288657
  Solvation  Ediel_sol  =         0.00000000
  ---------------------------------------------------
  free energy    TOTEN  =       -33.23509586 eV

  energy without entropy =      -33.23509586  energy(sigma->0) =      -33.23509586


--------------------------------------------------------------------------------------------------------




--------------------------------------- Iteration      1(  22)  ---------------------------------------


    POTLOK:  cpu time   50.8560: real time   51.0637
    SETDIJ:  cpu time    0.0440: real time    0.0464
     EDDAV:  cpu time   18.6080: real time   18.7191
 BZINTS: Fermi energy: -3.854537; 64.000000 electrons
         Band energy:-508.600609;  BLOECHL correction: -0.003828
       DOS:  cpu time    0.0040: real time    0.0057
    --------------------------------------------
      LOOP:  cpu time   69.5120: real time   69.8348

 eigenvalue-minimisations  :   736
 total energy-change (2. order) :-0.4387714E-04  (-0.3749317E-05)
 number of electron      63.9999991 magnetization       2.0072240
 augmentation part        4.4240777 magnetization       1.1984471

 Free energy of the ion-electron system (eV)
  ---------------------------------------------------
  alpha Z        PSCENC =        42.65598769
  Ewald energy   TEWEN  =      8065.03639907
  -Hartree energ DENC   =    -11575.46656329
  -exchange      EXHF   =         0.00000000
  -V(xc)+E(xc)   XCENC  =        33.90918961
  PAW double counting   =      2465.66360946    -2482.38603957
  entropy T*S    EENTRO =         0.00000000
  eigenvalues    EBANDS =      -508.60060928
  atomic energy  EATOM  =      3925.95288657
  Solvation  Ediel_sol  =         0.00000000
  ---------------------------------------------------
  free energy    TOTEN  =       -33.23513973 eV

  energy without entropy =      -33.23513973  energy(sigma->0) =      -33.23513973


--------------------------------------------------------------------------------------------------------




 average (electrostatic) potential at core
  the test charge radii are     0.9791  1.1631  1.0808
  (the norm of the test charge is              1.0000)
       1 -50.6614       2 -50.6614       3 -40.7946       4 -40.7946       5 -62.0423
       6 -62.0423       7 -62.0422       8 -62.0423       9 -62.0423      10 -62.0422



 E-fermi :  -3.8545     XC(G=0):  -3.3356     alpha+bet : -2.0270


 spin component 1

 k-point     1 :       0.0000    0.0000    0.0000
  band No.  band energies     occupation 
      1     -16.7380      1.00000
      2     -16.2674      1.00000
      3     -15.7412      1.00000
      4     -15.7412      1.00000
      5     -15.6915      1.00000
      6     -15.6914      1.00000
      7     -12.5457      1.00000
      8     -10.2290      1.00000
      9      -7.4925      1.00000
     10      -7.4924      1.00000
     11      -7.4757      1.00000
     12      -7.4484      1.00000
     13      -7.0382      1.00000
     14      -7.0382      1.00000
     15      -6.3423      1.00000
     16      -6.2594      1.00000
     17      -6.2594      1.00000
     18      -6.1069      1.00000
     19      -6.1069      1.00000
     20      -5.4997      1.00000
     21      -5.2719      1.00000
     22      -5.2719      1.00000
     23      -5.1297      1.00000
     24      -5.1124      1.00000
     25      -5.1124      1.00000
     26      -5.0529      1.00000
     27      -5.0528      1.00000
     28      -5.0267      1.00000
     29      -4.6449      1.00000
     30      -4.2758      1.00000
     31      -4.2758      1.00000
     32      -3.8549      1.00000
     33      -3.8548      1.32953
     34      -3.4595      0.00000
     35      -3.4595      0.00000
     36      -3.0724      0.00000
     37      -2.7504      0.00000
     38      -0.5707      0.00000
     39      -0.5706      0.00000
     40       0.0759      0.00000
     41       0.3427      0.00000
     42       0.9228      0.00000
     43       1.0874      0.00000
     44       1.0874      0.00000
     45       1.3783      0.00000
     46       1.4214      0.00000
     47       2.0074      0.00000
     48       2.4300      0.00000

 k-point     2 :       0.2000    0.0000    0.0000
  band No.  band energies     occupation 
      1     -16.6544      1.00000
      2     -16.2081      1.00000
      3     -15.8325      1.00000
      4     -15.7866      1.00000
      5     -15.7327      1.00000
      6     -15.7191      1.00000
      7     -12.5162      1.00000
      8     -10.2678      1.00000
      9      -7.6040      1.00000
     10      -7.4704      1.00000
     11      -7.4287      1.00000
     12      -7.1622      1.00000
     13      -6.7650      1.00000
     14      -6.6225      1.00000
     15      -6.3772      1.00000
     16      -6.3047      1.00000
     17      -6.2724      1.00000
     18      -6.1671      1.00000
     19      -5.8145      1.00000
     20      -5.5971      1.00000
     21      -5.5044      1.00000
     22      -5.4415      1.00000
     23      -5.1874      1.00000
     24      -5.1785      1.00000
     25      -5.1341      1.00000
     26      -5.0415      1.00000
     27      -5.0031      1.00000
     28      -4.9279      1.00000
     29      -4.8765      1.00000
     30      -4.6339      1.00000
     31      -4.4722      1.00000
     32      -3.9981      1.00000
     33      -3.8545      0.36105
     34      -3.7664      0.00000
     35      -3.5675      0.00000
     36      -2.6493      0.00000
     37      -2.3093      0.00000
[...]
     34      -2.4521      0.00000
     35      -2.1160      0.00000
     36      -1.3605      0.00000
     37      -1.0570      0.00000
     38       0.4034      0.00000
     39       0.7118      0.00000
     40       1.0723      0.00000
     41       1.2002      0.00000
     42       1.7212      0.00000
     43       1.7273      0.00000
     44       2.0016      0.00000
     45       2.2052      0.00000
     46       2.3773      0.00000
     47       2.9101      0.00000
     48       3.0593      0.00000

 k-point     5 :      -0.4000    0.2000    0.0000
  band No.  band energies     occupation 
      1     -16.6467      1.00000
      2     -16.6431      1.00000
      3     -16.1875      1.00000
      4     -16.0055      1.00000
      5     -15.9666      1.00000
      6     -15.7665      1.00000
      7     -11.8095      1.00000
      8     -10.2417      1.00000
      9      -8.1802      1.00000
     10      -7.6614      1.00000
     11      -7.6353      1.00000
     12      -7.1382      1.00000
     13      -6.7871      1.00000
     14      -6.7804      1.00000
     15      -6.5203      1.00000
     16      -6.2684      1.00000
     17      -6.1149      1.00000
     18      -6.0060      1.00000
     19      -5.9553      1.00000
     20      -5.8328      1.00000
     21      -5.6478      1.00000
     22      -5.1835      1.00000
     23      -4.8616      1.00000
     24      -4.7440      1.00000
     25      -4.7277      1.00000
     26      -4.5046      1.00000
     27      -4.4562      1.00000
     28      -4.3053      1.00000
     29      -4.2273      1.00000
     30      -4.2167      1.00000
     31      -3.9562      1.00000
     32      -2.9105      1.00000
     33      -2.7811      0.31676
     34      -2.6659      0.00000
     35      -2.1443      0.00000
     36      -2.0180      0.00000
     37      -1.0975      0.00000
     38       0.1933      0.00000
     39       0.2459      0.00000
     40       0.9135      0.00000
     41       1.0094      0.00000
     42       1.1664      0.00000
     43       2.3543      0.00000
     44       2.3691      0.00000
     45       2.4117      0.00000
     46       2.4925      0.00000
     47       2.8656      0.00000
     48       3.0843      0.00000


--------------------------------------------------------------------------------------------------------


 soft charge-density along one line, spin component           1
         0         1         2         3         4         5         6         7         8         9
 total charge-density along one line

 soft charge-density along one line, spin component           2
         0         1         2         3         4         5         6         7         8         9
 total charge-density along one line

 pseudopotential strength for first ion, spin component:           1
-10.840  -0.057  -0.000   0.000  -0.000   1.500   0.025   0.000
 -0.057 -10.901   0.000  -0.000   0.000   0.025   1.526  -0.000
 -0.000   0.000 -10.799   0.000   0.000   0.000  -0.000   1.482
  0.000  -0.000   0.000 -10.901   0.057  -0.000   0.000  -0.000
 -0.000   0.000   0.000   0.057 -10.840   0.000  -0.000  -0.000
  1.500   0.025   0.000  -0.000   0.000   0.693  -0.011  -0.000
  0.025   1.526  -0.000   0.000  -0.000  -0.011   0.682   0.000
  0.000  -0.000   1.482  -0.000  -0.000  -0.000   0.000   0.702
 -0.000   0.000  -0.000   1.526  -0.025   0.000  -0.000   0.000
  0.000  -0.000  -0.000  -0.025   1.500  -0.000   0.000   0.000
  0.000  -0.000   0.001  -0.000   0.000   0.000  -0.000   0.000
 -0.000   0.000  -0.000   0.000  -0.000   0.000  -0.000   0.000
 -0.000  -0.000   0.000  -0.000   0.000   0.000   0.000  -0.000
 -0.000  -0.000  -0.000  -0.000  -0.000  -0.000   0.000   0.000
  0.000  -0.000   0.000  -0.000   0.000   0.001  -0.000  -0.000
  0.000   0.000  -0.000   0.000  -0.001  -0.000  -0.000   0.000
  0.000   0.000   0.000   0.000   0.000  -0.000  -0.000  -0.000
 -0.001   0.000  -0.000   0.000  -0.000   0.000  -0.000   0.000
 pseudopotential strength for first ion, spin component:           2
-10.840  -0.057  -0.000   0.000  -0.000   1.500   0.025   0.000
 -0.057 -10.901   0.000  -0.000   0.000   0.025   1.526  -0.000
 -0.000   0.000 -10.799   0.000   0.000   0.000  -0.000   1.482
  0.000  -0.000   0.000 -10.901   0.057  -0.000   0.000  -0.000
 -0.000   0.000   0.000   0.057 -10.840   0.000  -0.000  -0.000
  1.500   0.025   0.000  -0.000   0.000   0.693  -0.011  -0.000
  0.025   1.526  -0.000   0.000  -0.000  -0.011   0.682   0.000
  0.000  -0.000   1.482  -0.000  -0.000  -0.000   0.000   0.702
 -0.000   0.000  -0.000   1.526  -0.025   0.000  -0.000   0.000
  0.000  -0.000  -0.000  -0.025   1.500  -0.000   0.000   0.000
  0.000  -0.000   0.001  -0.000   0.000   0.000  -0.000   0.000
 -0.000   0.000  -0.000   0.000  -0.000   0.000  -0.000   0.000
 -0.000  -0.000   0.000  -0.000   0.000   0.000   0.000  -0.000
 -0.000  -0.000  -0.000  -0.000  -0.000  -0.000   0.000   0.000
  0.000  -0.000   0.000  -0.000   0.000   0.001  -0.000  -0.000
  0.000   0.000  -0.000   0.000  -0.001  -0.000  -0.000   0.000
  0.000   0.000   0.000   0.000   0.000  -0.000  -0.000  -0.000
 -0.001   0.000  -0.000   0.000  -0.000   0.000  -0.000   0.000
 total augmentation occupancy for first ion, spin component:           1
  1.811  -0.160   0.000  -0.000  -0.000   0.024   0.097  -0.000  -0.000  -0.000  -0.000  -0.000  -0.000  -0.000   0.004   0.000
 -0.160   1.670  -0.000  -0.000  -0.000   0.097   0.119   0.000  -0.000  -0.000   0.000   0.000  -0.000   0.000   0.005   0.000
  0.000  -0.000   1.944  -0.000  -0.000  -0.000   0.000  -0.059   0.000   0.000  -0.012  -0.007  -0.000  -0.000   0.000   0.000
 -0.000  -0.000  -0.000   1.670   0.160  -0.000   0.000   0.000   0.119  -0.097  -0.000   0.000  -0.005   0.000  -0.000   0.000
 -0.000  -0.000  -0.000   0.160   1.811   0.000  -0.000   0.000  -0.097   0.024   0.000   0.000   0.004   0.000   0.000  -0.001
  0.024   0.097  -0.000  -0.000   0.000   0.075   0.044   0.000  -0.000  -0.000   0.000  -0.000  -0.000  -0.000   0.026   0.000
  0.097   0.119   0.000   0.000  -0.000   0.044   0.130   0.000  -0.000  -0.000   0.000  -0.000  -0.000  -0.000  -0.003   0.000
 -0.000   0.000  -0.059   0.000   0.000   0.000   0.000   0.066   0.000  -0.000   0.027  -0.014  -0.000  -0.000   0.000   0.000
 -0.000  -0.000   0.000   0.119  -0.097  -0.000  -0.000   0.000   0.130  -0.044   0.000   0.000   0.003  -0.000  -0.000  -0.000
 -0.000  -0.000   0.000  -0.097   0.024  -0.000  -0.000  -0.000  -0.044   0.075  -0.000   0.000   0.026   0.000   0.000  -0.003
 -0.000   0.000  -0.012  -0.000   0.000   0.000   0.000   0.027   0.000  -0.000   1.042  -0.296   0.000  -0.000   0.000   0.000
 -0.000   0.000  -0.007  -0.000   0.000  -0.000  -0.000  -0.014   0.000   0.000  -0.296   0.149  -0.000   0.000   0.000  -0.000
 -0.000  -0.000  -0.000  -0.005   0.004  -0.000  -0.000  -0.000   0.003   0.026   0.000  -0.000   0.199  -0.000  -0.000  -0.014
 -0.000  -0.000  -0.000   0.000   0.000  -0.000   0.000  -0.000  -0.000   0.000  -0.000   0.000  -0.000   0.211   0.000   0.000
  0.004   0.005   0.000  -0.000   0.000   0.026  -0.003   0.000  -0.000   0.000   0.000  -0.000  -0.000   0.000   0.199   0.000
  0.000   0.000   0.000   0.000  -0.001   0.000   0.000   0.000  -0.000  -0.003   0.000  -0.000  -0.014   0.000   0.000   0.002
  0.000   0.000   0.000  -0.000  -0.000   0.000  -0.000   0.000   0.000  -0.000   0.000  -0.000   0.000  -0.017  -0.000  -0.000
 -0.001  -0.000  -0.000   0.000  -0.000  -0.003   0.000  -0.000   0.000  -0.000  -0.000  -0.000  -0.000  -0.000  -0.014  -0.000
 total augmentation occupancy for first ion, spin component:           2
 -0.000  -0.000  -0.000  -0.000  -0.000   0.000  -0.000   0.000  -0.000  -0.000   0.000   0.000  -0.000  -0.000  -0.000  -0.000
 -0.000  -0.000  -0.000   0.000  -0.000  -0.000  -0.000  -0.000  -0.000  -0.000   0.000   0.000  -0.000  -0.000  -0.000  -0.000
 -0.000  -0.000   0.000  -0.000   0.000   0.000  -0.000   0.000  -0.000  -0.000   0.000   0.000  -0.000  -0.000  -0.000  -0.000
 -0.000   0.000  -0.000  -0.000   0.000  -0.000   0.000  -0.000  -0.000   0.000  -0.000   0.000   0.000  -0.000  -0.000   0.000
  0.000  -0.000   0.000   0.000  -0.000   0.000  -0.000  -0.000   0.000   0.000  -0.000  -0.000  -0.000   0.000   0.000   0.000
  0.000  -0.000   0.000  -0.000   0.000  -0.000  -0.000  -0.000   0.000   0.000  -0.000  -0.000  -0.000   0.000  -0.000  -0.000
 -0.000  -0.000  -0.000   0.000  -0.000  -0.000  -0.000  -0.000   0.000   0.000   0.000   0.000   0.000  -0.000   0.000  -0.000
  0.000  -0.000   0.000  -0.000  -0.000  -0.000  -0.000   0.000  -0.000   0.000  -0.000  -0.000  -0.000   0.000  -0.000  -0.000
 -0.000  -0.000  -0.000  -0.000   0.000   0.000   0.000  -0.000  -0.000   0.000   0.000   0.000  -0.000  -0.000   0.000  -0.000
 -0.000  -0.000  -0.000   0.000   0.000  -0.000   0.000   0.000   0.000  -0.000   0.000   0.000  -0.000  -0.000   0.000  -0.000
  0.000   0.000   0.000  -0.000  -0.000  -0.000   0.000  -0.000   0.000   0.000  -0.000   0.000  -0.000   0.000   0.000  -0.000
  0.000   0.000   0.000  -0.000  -0.000  -0.000   0.000  -0.000   0.000   0.000   0.000  -0.000  -0.000   0.000  -0.000   0.000
 -0.000  -0.000  -0.000   0.000  -0.000  -0.000   0.000  -0.000  -0.000  -0.000  -0.000  -0.000   0.000  -0.000  -0.000   0.000
 -0.000   0.000  -0.000   0.000   0.000   0.000   0.000   0.000   0.000  -0.000   0.000   0.000   0.000  -0.000  -0.000   0.000
 -0.000  -0.000  -0.000  -0.000   0.000  -0.000   0.000  -0.000   0.000   0.000   0.000  -0.000  -0.000  -0.000   0.000   0.000
 -0.000  -0.000  -0.000   0.000   0.000  -0.000  -0.000  -0.000  -0.000  -0.000  -0.000   0.000   0.000   0.000   0.000  -0.000
 -0.000   0.000  -0.000   0.000   0.000   0.000  -0.000   0.000  -0.000  -0.000  -0.000  -0.000  -0.000   0.000   0.000  -0.000
  0.000  -0.000  -0.000  -0.000   0.000  -0.000   0.000  -0.000  -0.000   0.000   0.000  -0.000  -0.000   0.000   0.000   0.000


------------------------ aborting loop because EDIFF is reached ----------------------------------------





 total charge     

# of ion       s       p       d       tot
------------------------------------------
    1        0.404   0.465   8.348   9.217
    2        0.404   0.465   8.348   9.217
    3        1.172   1.111   0.088   2.371
    4        1.172   1.111   0.088   2.371
    5        1.499   2.222   0.043   3.763
    6        1.498   2.270   0.042   3.810
    7        1.496   2.224   0.043   3.763
    8        1.499   2.222   0.043   3.763
    9        1.498   2.270   0.042   3.810
   10        1.496   2.224   0.043   3.763
--------------------------------------------------
tot         12.137  16.584  17.126  45.848



 magnetization (x)

# of ion       s       p       d       tot
------------------------------------------
    1        0.000   0.000   0.000   0.000
    2        0.000   0.000   0.000   0.000
    3       -0.000  -0.000   0.000  -0.000
    4       -0.000  -0.000   0.000  -0.000
    5       -0.000   0.000   0.000   0.000
    6       -0.000   0.000   0.000   0.000
    7       -0.000   0.000   0.000   0.000
    8       -0.000   0.000   0.000   0.000
    9       -0.000   0.000   0.000   0.000
   10       -0.000   0.000   0.000   0.000
--------------------------------------------------
tot         -0.000   0.000   0.000   0.000

    CHARGE:  cpu time    2.1480: real time    2.1935
    FORLOC:  cpu time    0.0560: real time    0.0558
    FORNL :  cpu time    6.6320: real time    6.6545
    STRESS:  cpu time   19.6480: real time   19.8495
    FORCOR:  cpu time   51.3080: real time   51.4263
    FORHAR:  cpu time    0.3240: real time    0.3207
    MIXING:  cpu time    0.0480: real time    0.0506
    OFIELD:  cpu time    0.0000: real time    0.0000

  FORCE on cell =-STRESS in cart. coord.  units (eV):
  Direction    XX          YY          ZZ          XY          YZ          ZX
  --------------------------------------------------------------------------------------
  Alpha Z    50.93635    50.93635    50.93635
  Ewald   13214.92850 13214.92666-15333.35988    -0.00266    -0.00054    -0.00098
  Hartree 13954.72089 13954.72222-13288.42384    -0.00065     0.00007     0.00012
  E(xc)    -274.22384  -274.22397  -273.96109     0.00013    -0.00001     0.00002
  Local  -27876.95170-27876.95233 27884.65464     0.00292     0.00029     0.00055
  n-local   220.00153   221.37753   222.39332     0.73948     0.99762     0.84664
  augment    82.29056    82.29010    79.18475     0.00050     0.00006     0.00002
  Kinetic   632.62207   623.24293   658.81991    -5.41919    -1.25953    -1.13790
  Fock        0.00000     0.00000     0.00000     0.00000     0.00000     0.00000
  -------------------------------------------------------------------------------------
  Total       0.32194     0.32194     0.24416    -0.00000    -0.00000     0.00000
  in kB       0.63574     0.63574     0.48215    -0.00001    -0.00000     0.00000
  external pressure =        0.58 kB  Pullay stress =        0.00 kB


 VOLUME and BASIS-vectors are now :
 -----------------------------------------------------------------------------
  energy-cutoff  :      520.00
  volume of cell :      811.34
      direct lattice vectors                 reciprocal lattice vectors
     6.281602508  0.000001030  0.000000000     0.159195061 -0.091911270 -0.000000000
     3.140800000  5.440027599 -0.000000000    -0.000000030  0.183822614 -0.000000000
     0.000000000  0.000000000 23.742720768    -0.000000000  0.000000000  0.042118172

  length of vectors
     6.281602508  6.281602098 23.742720768     0.183822602  0.183822614  0.042118172


 FORCES acting on ions
    electron-ion (+dipol)            ewald-force                    non-local-force                 convergence-correction
 -----------------------------------------------------------------------------------------------
   0.359E-04 -.151E-04 -.246E+00   0.782E-03 0.474E-03 0.256E+00   -.360E-21 -.476E-21 -.538E-02   0.241E-08 -.951E-07 -.452E-04
   -.359E-04 0.151E-04 0.246E+00   -.782E-03 -.474E-03 -.256E+00   0.694E-17 0.278E-16 0.538E-02   -.241E-08 0.951E-07 0.452E-04
   -.102E-03 0.978E-04 0.253E+03   -.175E-03 -.978E-04 -.252E+03   0.103E-16 0.331E-17 -.184E+01   -.352E-07 -.204E-07 -.669E-02
   0.102E-03 -.978E-04 -.253E+03   0.175E-03 0.978E-04 0.252E+03   -.508E-17 -.331E-17 0.184E+01   0.352E-07 0.204E-07 0.669E-02
   -.366E+02 -.130E+00 -.526E+03   0.350E+02 0.131E+00 0.528E+03   0.163E+01 0.106E-02 -.207E+01   0.868E-03 -.745E-04 0.129E-01
   0.182E+02 0.318E+02 -.526E+03   -.174E+02 -.304E+02 0.528E+03   -.812E+00 -.141E+01 -.207E+01   -.498E-03 -.714E-03 0.129E-01
   0.184E+02 -.316E+02 -.526E+03   -.176E+02 0.302E+02 0.528E+03   -.814E+00 0.141E+01 -.207E+01   -.369E-03 0.789E-03 0.129E-01
   0.366E+02 0.130E+00 0.526E+03   -.350E+02 -.131E+00 -.528E+03   -.163E+01 -.106E-02 0.207E+01   -.868E-03 0.745E-04 -.129E-01
   -.182E+02 -.318E+02 0.526E+03   0.174E+02 0.304E+02 -.528E+03   0.812E+00 0.141E+01 0.207E+01   0.498E-03 0.714E-03 -.129E-01
   -.184E+02 0.316E+02 0.526E+03   0.176E+02 -.302E+02 -.528E+03   0.814E+00 -.141E+01 0.207E+01   0.369E-03 -.789E-03 -.129E-01
 -----------------------------------------------------------------------------------------------
   -.333E-09 -.229E-10 -.191E-09   -.142E-13 -.213E-13 -.227E-12   0.444E-15 -.222E-15 0.000E+00   0.141E-12 0.274E-12 -.199E-10


 POSITION                                       TOTAL-FORCE (eV/Angst)
 -----------------------------------------------------------------------------------
      3.14080      1.81334     11.87133         0.000000     -0.000000      0.004898
      6.28160      3.62669     11.87140        -0.000000      0.000000     -0.004898
      0.00000      0.00000     10.64187        -0.000000     -0.000000     -0.072525
      0.00000      0.00000     13.10085         0.000000      0.000000      0.072525
      3.84827     -0.00064     13.39278        -0.001130      0.003176     -0.002604
      1.21612      2.10765     13.39278         0.003315     -0.000610     -0.002604
      4.35802      3.33302     13.39278        -0.002185     -0.002566     -0.002604
      2.43333      0.00064     10.34994         0.001130     -0.003176      0.002604
      1.92468      3.33238     10.34994        -0.003315      0.000610      0.002604
      5.06438      2.10701     10.34994         0.002185      0.002566      0.002604
 -----------------------------------------------------------------------------------
    total drift:                               -0.000000     -0.000000     -0.000000


--------------------------------------------------------------------------------------------------------



  FREE ENERGIE OF THE ION-ELECTRON SYSTEM (eV)
  ---------------------------------------------------
  free  energy   TOTEN  =       -36.35474198 eV

  energy  without entropy=      -36.35474198  energy(sigma->0) =      -36.35474198

 d Force = 0.1029936E-03[-0.331E-05, 0.209E-03]  d Energy = 0.5907342E-03-0.488E-03
 d Force =-0.3035959E+01[-0.304E+01,-0.304E+01]  d Ewald  =-0.1212401E+02 0.909E+01


--------------------------------------------------------------------------------------------------------


    POTLOK:  cpu time   51.2760: real time   51.4584


--------------------------------------------------------------------------------------------------------




--------------------------------------------------------------------------------------------------------


  
 reached required accuracy - stopping structural energy minimisation
     LOOP+:  cpu time  573.5440: real time  577.4054
    4ORBIT:  cpu time    0.0000: real time    0.0000



 total charge     

# of ion       s       p       d       tot
------------------------------------------
    1        0.404   0.465   8.348   9.217
    2        0.404   0.465   8.348   9.217
    3        1.172   1.111   0.088   2.371
    4        1.172   1.111   0.088   2.371
    5        1.499   2.222   0.043   3.763
    6        1.498   2.270   0.042   3.810
    7        1.496   2.224   0.043   3.763
    8        1.499   2.222   0.043   3.763
    9        1.498   2.270   0.042   3.810
   10        1.496   2.224   0.043   3.763
--------------------------------------------------
tot         12.137  16.584  17.126  45.848



 magnetization (x)

# of ion       s       p       d       tot
------------------------------------------
    1        0.000   0.000   0.000   0.000
    2        0.000   0.000   0.000   0.000
    3       -0.000  -0.000   0.000  -0.000
    4       -0.000  -0.000   0.000  -0.000
    5       -0.000   0.000   0.000   0.000
    6       -0.000   0.000   0.000   0.000
    7       -0.000   0.000   0.000   0.000
    8       -0.000   0.000   0.000   0.000
    9       -0.000   0.000   0.000   0.000
   10       -0.000   0.000   0.000   0.000
--------------------------------------------------
tot         -0.000   0.000   0.000   0.000

 BZINTS: Fermi energy: -2.771903; 64.000000 electrons
         Band energy:-508.781311;  BLOECHL correction: -0.015062

 total amount of memory used by VASP MPI-rank0   130196. kBytes
=======================================================================

   base      :      30000. kBytes
   nonlr-proj:       9886. kBytes
   fftplans  :      11247. kBytes
   grid      :      66142. kBytes
   one-center:        311. kBytes
   wavefun   :      12610. kBytes

  
  
 General timing and accounting informations for this job:
 ========================================================
  
                  Total CPU time used (sec):    20688.699
                            User time (sec):    20243.524
                          System time (sec):      445.176
                         Elapsed time (sec):    20797.437
  
                   Maximum memory used (kb):      387560.
                   Average memory used (kb):           0.
  
                          Minor page faults:     17031251
                          Major page faults:            5
                 Voluntary context switches:         1050
