PROCAR lm decomposed
# of k-points:    5         # of bands:   48         # of ions:   10

 k-point     1 :    0.00000000 0.00000000 0.00000000     weight = 0.04000000

band     1 # energy  -17.54287851 # occ.  1.00000000

ion      s     py     pz     px    dxy    dyz    dz2    dxz  x2-y2    tot
    1  0.020  0.000  0.000  0.000  0.000  0.000  0.000  0.000  0.000  0.020
    2  0.020  0.000  0.000  0.000  0.000  0.000  0.000  0.000  0.000  0.020
    3  0.040  0.000  0.000  0.000  0.000  0.000  0.000  0.000  0.000  0.041
    4  0.040  0.000  0.000  0.000  0.000  0.000  0.000  0.000  0.000  0.041
    5  0.093  0.000  0.001  0.000  0.000  0.000  0.000  0.000  0.000  0.094
    6  0.093  0.000  0.001  0.000  0.000  0.000  0.000  0.000  0.000  0.094
    7  0.093  0.000  0.001  0.000  0.000  0.000  0.000  0.000  0.000  0.094
    8  0.093  0.000  0.001  0.000  0.000  0.000  0.000  0.000  0.000  0.094
    9  0.093  0.000  0.001  0.000  0.000  0.000  0.000  0.000  0.000  0.094
   10  0.093  0.000  0.001  0.000  0.000  0.000  0.000  0.000  0.000  0.094
tot    0.677  0.001  0.005  0.001  0.000  0.000  0.001  0.000  0.000  0.684

band     2 # energy  -16.60436365 # occ.  1.00000000

ion      s     py     pz     px    dxy    dyz    dz2    dxz  x2-y2    tot
    1  0.000  0.000  0.008  0.000  0.000  0.000  0.000  0.000  0.000  0.008
    2  0.000  0.000  0.008  0.000  0.000  0.000  0.000  0.000  0.000  0.008
    3  0.028  0.000  0.001  0.000  0.000  0.000  0.001  0.000  0.000  0.029
    4  0.028  0.000  0.001  0.000  0.000  0.000  0.001  0.000  0.000  0.029
    5  0.107  0.000  0.000  0.000  0.000  0.000  0.000  0.000  0.000  0.108
    6  0.107  0.000  0.000  0.000  0.000  0.000  0.000  0.000  0.000  0.108
    7  0.107  0.000  0.000  0.000  0.000  0.000  0.000  0.000  0.000  0.108
    8  0.107  0.000  0.000  0.000  0.000  0.000  0.000  0.000  0.000  0.108
    9  0.107  0.000  0.000  0.000  0.000  0.000  0.000  0.000  0.000  0.108
   10  0.107  0.000  0.000  0.000  0.000  0.000  0.000  0.000  0.000  0.108
tot    0.700  0.001  0.018  0.001  0.000  0.000  0.002  0.000  0.000  0.722

band     3 # energy  -15.70697312 # occ.  1.00000000

ion      s     py     pz     px    dxy    dyz    dz2    dxz  x2-y2    tot
    1  0.000  0.007  0.000  0.001  0.000  0.000  0.000  0.001  0.002  0.011
    2  0.000  0.007  0.000  0.001  0.000  0.000  0.000  0.001  0.002  0.011
    3  0.000  0.001  0.000  0.005  0.000  0.000  0.000  0.000  0.001  0.007
    4  0.000  0.001  0.000  0.005  0.000  0.000  0.000  0.000  0.001  0.007
    5  0.213  0.000  0.001  0.000  0.000  0.000  0.000  0.000  0.000  0.214
    6  0.146  0.000  0.001  0.000  0.000  0.000  0.000  0.000  0.000  0.147
    7  0.006  0.000  0.000  0.000  0.000  0.000  0.000  0.000  0.000  0.006
    8  0.213  0.000  0.001  0.000  0.000  0.000  0.000  0.000  0.000  0.214
    9  0.146  0.000  0.001  0.000  0.000  0.000  0.000  0.000  0.000  0.147
   10  0.006  0.000  0.000  0.000  0.000  0.000  0.000  0.000  0.000  0.006
tot    0.730  0.016  0.003  0.013  0.001  0.000  0.000  0.002  0.006  0.771

band     4 # energy  -15.70693564 # occ.  1.00000000

ion      s     py     pz     px    dxy    dyz    dz2    dxz  x2-y2    tot
    1  0.000  0.001  0.000  0.007  0.002  0.001  0.000  0.000  0.000  0.011
    2  0.000  0.001  0.000  0.007  0.002  0.001  0.000  0.000  0.000  0.011
    3  0.000  0.005  0.000  0.001  0.001  0.000  0.000  0.000  0.000  0.007
    4  0.000  0.005  0.000  0.001  0.001  0.000  0.000  0.000  0.000  0.007
    5  0.030  0.000  0.000  0.000  0.000  0.000  0.000  0.000  0.000  0.031
    6  0.098  0.000  0.000  0.000  0.000  0.000  0.000  0.000  0.000  0.098
    7  0.237  0.000  0.001  0.000  0.000  0.000  0.000  0.000  0.000  0.238
    8  0.030  0.000  0.000  0.000  0.000  0.000  0.000  0.000  0.000  0.031
    9  0.098  0.000  0.000  0.000  0.000  0.000  0.000  0.000  0.000  0.098
   10  0.237  0.000  0.001  0.000  0.000  0.000  0.000  0.000  0.000  0.238
tot    0.730  0.013  0.003  0.016  0.006  0.002  0.000  0.000  0.001  0.771

band     5 # energy  -15.50989176 # occ.  1.00000000

ion      s     py     pz     px    dxy    dyz    dz2    dxz  x2-y2    tot
    1  0.000  0.000  0.000  0.001  0.002  0.007  0.000  0.000  0.000  0.010
    2  0.000  0.000  0.000  0.001  0.002  0.007  0.000  0.000  0.000  0.010
    3  0.000  0.000  0.000  0.009  0.000  0.000  0.000  0.000  0.001  0.011
    4  0.000  0.000  0.000  0.009  0.000  0.000  0.000  0.000  0.001  0.011
    5  0.236  0.000  0.000  0.001  0.000  0.000  0.000  0.000  0.000  0.238
    6  0.103  0.000  0.000  0.000  0.000  0.000  0.000  0.000  0.000  0.104
    7  0.027  0.000  0.000  0.000  0.000  0.000  0.000  0.000  0.000  0.027
    8  0.236  0.000  0.000  0.001  0.000  0.000  0.000  0.000  0.000  0.238
    9  0.103  0.000  0.000  0.000  0.000  0.000  0.000  0.000  0.000  0.104
   10  0.027  0.000  0.000  0.000  0.000  0.000  0.000  0.000  0.000  0.027
tot    0.733  0.002  0.001  0.023  0.004  0.014  0.000  0.000  0.002  0.779

band     6 # energy  -15.50984958 # occ.  1.00000000

ion      s     py     pz     px    dxy    dyz    dz2    dxz  x2-y2    tot
    1  0.000  0.001  0.000  0.000  0.000  0.000  0.000  0.007  0.002  0.010
    2  0.000  0.001  0.000  0.000  0.000  0.000  0.000  0.007  0.002  0.010
    3  0.000  0.009  0.000  0.000  0.001  0.000  0.000  0.000  0.000  0.011
    4  0.000  0.009  0.000  0.000  0.001  0.000  0.000  0.000  0.000  0.011
    5  0.008  0.000  0.000  0.000  0.000  0.000  0.000  0.000  0.000  0.008
    6  0.141  0.000  0.000  0.000  0.000  0.000  0.000  0.000  0.000  0.142
    7  0.217  0.001  0.000  0.000  0.000  0.000  0.000  0.000  0.000  0.218
    8  0.008  0.000  0.000  0.000  0.000  0.000  0.000  0.000  0.000  0.008
    9  0.141  0.000  0.000  0.000  0.000  0.000  0.000  0.000  0.000  0.142
   10  0.217  0.001  0.000  0.000  0.000  0.000  0.000  0.000  0.000  0.218
tot    0.733  0.023  0.001  0.002  0.002  0.000  0.000  0.014  0.004  0.779

band     7 # energy  -12.05955248 # occ.  1.00000000

ion      s     py     pz     px    dxy    dyz    dz2    dxz  x2-y2    tot
    1  0.010  0.000  0.000  0.000  0.000  0.000  0.001  0.000  0.000  0.011
    2  0.010  0.000  0.000  0.000  0.000  0.000  0.001  0.000  0.000  0.011
    3  0.249  0.000  0.010  0.000  0.000  0.000  0.001  0.000  0.000  0.260
    4  0.249  0.000  0.010  0.000  0.000  0.000  0.001  0.000  0.000  0.260
    5  0.013  0.000  0.000  0.012  0.000  0.000  0.000  0.000  0.001  0.027
    6  0.013  0.009  0.000  0.003  0.001  0.000  0.000  0.000  0.000  0.027
    7  0.013  0.009  0.000  0.003  0.001  0.000  0.000  0.000  0.000  0.027
    8  0.013  0.000  0.000  0.012  0.000  0.000  0.000  0.000  0.001  0.027
    9  0.013  0.009  0.000  0.003  0.001  0.000  0.000  0.000  0.000  0.027
   10  0.013  0.009  0.000  0.003  0.001  0.000  0.000  0.000  0.000  0.027
tot    0.599  0.037  0.021  0.037  0.003  0.001  0.004  0.001  0.003  0.704

band     8 # energy   -9.90968366 # occ.  1.00000000

ion      s     py     pz     px    dxy    dyz    dz2    dxz  x2-y2    tot
    1  0.000  0.000  0.006  0.000  0.000  0.000  0.000  0.000  0.000  0.006
    2  0.000  0.000  0.006  0.000  0.000  0.000  0.000  0.000  0.000  0.006
    3  0.239  0.000  0.008  0.000  0.000  0.000  0.001  0.000  0.000  0.248
    4  0.239  0.000  0.008  0.000  0.000  0.000  0.001  0.000  0.000  0.248
    5  0.010  0.000  0.000  0.022  0.000  0.000  0.000  0.000  0.001  0.034
    6  0.010  0.017  0.000  0.006  0.001  0.000  0.000  0.000  0.000  0.034
    7  0.010  0.017  0.000  0.006  0.001  0.000  0.000  0.000  0.000  0.034
    8  0.010  0.000  0.000  0.022  0.000  0.000  0.000  0.000  0.001  0.034
    9  0.010  0.017  0.000  0.006  0.001  0.000  0.000  0.000  0.000  0.034
   10  0.010  0.017  0.000  0.006  0.001  0.000  0.000  0.000  0.000  0.034
tot    0.536  0.067  0.029  0.067  0.004  0.000  0.003  0.000  0.004  0.711

band     9 # energy   -8.51334960 # occ.  1.00000000

ion      s     py     pz     px    dxy    dyz    dz2    dxz  x2-y2    tot
    1  0.092  0.000  0.000  0.000  0.000  0.000  0.017  0.000  0.000  0.108
    2  0.092  0.000  0.000  0.000  0.000  0.000  0.017  0.000  0.000  0.108
    3  0.000  0.000  0.000  0.000  0.000  0.000  0.000  0.000  0.000  0.000
    4  0.000  0.000  0.000  0.000  0.000  0.000  0.000  0.000  0.000  0.000
    5  0.000  0.058  0.000  0.000  0.000  0.001  0.000  0.000  0.000  0.059
    6  0.000  0.014  0.000  0.044  0.000  0.000  0.000  0.000  0.000  0.059
    7  0.000  0.015  0.000  0.043  0.000  0.000  0.000  0.000  0.000  0.059
    8  0.000  0.058  0.000  0.000  0.000  0.001  0.000  0.000  0.000  0.059
    9  0.000  0.014  0.000  0.044  0.000  0.000  0.000  0.000  0.000  0.059
   10  0.000  0.015  0.000  0.043  0.000  0.000  0.000  0.000  0.000  0.059
tot    0.184  0.174  0.000  0.174  0.001  0.002  0.033  0.002  0.001  0.570

band    10 # energy   -8.15634075 # occ.  1.00000000

ion      s     py     pz     px    dxy    dyz    dz2    dxz  x2-y2    tot
    1  0.000  0.002  0.000  0.003  0.002  0.022  0.000  0.017  0.002  0.049
    2  0.000  0.002  0.000  0.003  0.002  0.022  0.000  0.017  0.002  0.049
    3  0.000  0.023  0.000  0.031  0.000  0.000  0.000  0.000  0.000  0.054
    4  0.000  0.023  0.000  0.031  0.000  0.000  0.000  0.000  0.000  0.054
    5  0.003  0.010  0.001  0.045  0.000  0.000  0.000  0.000  0.000  0.059
    6  0.005  0.064  0.002  0.008  0.000  0.000  0.000  0.000  0.000  0.080
    7  0.000  0.001  0.000  0.024  0.000  0.000  0.000  0.000  0.000  0.025
    8  0.003  0.010  0.001  0.045  0.000  0.000  0.000  0.000  0.000  0.059
    9  0.005  0.064  0.002  0.008  0.000  0.000  0.000  0.000  0.000  0.080
   10  0.000  0.001  0.000  0.024  0.000  0.000  0.000  0.000  0.000  0.025
tot    0.016  0.200  0.007  0.220  0.006  0.046  0.000  0.035  0.005  0.535

band    11 # energy   -8.15631841 # occ.  1.00000000

ion      s     py     pz     px    dxy    dyz    dz2    dxz  x2-y2    tot
    1  0.000  0.003  0.000  0.002  0.002  0.017  0.000  0.022  0.002  0.049
    2  0.000  0.003  0.000  0.002  0.002  0.017  0.000  0.022  0.002  0.049
    3  0.000  0.031  0.000  0.023  0.000  0.000  0.000  0.000  0.000  0.054
    4  0.000  0.031  0.000  0.023  0.000  0.000  0.000  0.000  0.000  0.054
    5  0.002  0.013  0.001  0.034  0.000  0.000  0.000  0.000  0.000  0.050
    6  0.001  0.000  0.000  0.028  0.000  0.000  0.000  0.000  0.000  0.030
    7  0.005  0.064  0.002  0.013  0.000  0.000  0.000  0.000  0.000  0.084
    8  0.002  0.013  0.001  0.034  0.000  0.000  0.000  0.000  0.000  0.050
    9  0.001  0.000  0.000  0.028  0.000  0.000  0.000  0.000  0.000  0.030
   10  0.005  0.064  0.002  0.013  0.000  0.000  0.000  0.000  0.000  0.084
tot    0.016  0.220  0.007  0.200  0.005  0.035  0.000  0.046  0.006  0.535

band    12 # energy   -8.04248361 # occ.  1.00000000

ion      s     py     pz     px    dxy    dyz    dz2    dxz  x2-y2    tot
    1  0.047  0.000  0.000  0.000  0.000  0.000  0.022  0.000  0.000  0.068
    2  0.047  0.000  0.000  0.000  0.000  0.000  0.022  0.000  0.000  0.068
    3  0.001  0.000  0.031  0.000  0.000  0.000  0.000  0.000  0.000  0.032
    4  0.001  0.000  0.031  0.000  0.000  0.000  0.000  0.000  0.000  0.032
    5  0.005  0.000  0.046  0.003  0.000  0.000  0.000  0.000  0.000  0.054
    6  0.005  0.002  0.046  0.001  0.000  0.000  0.000  0.000  0.000  0.054
    7  0.005  0.002  0.046  0.001  0.000  0.000  0.000  0.000  0.000  0.054
    8  0.005  0.000  0.046  0.003  0.000  0.000  0.000  0.000  0.000  0.054
    9  0.005  0.002  0.046  0.001  0.000  0.000  0.000  0.000  0.000  0.054
   10  0.005  0.002  0.046  0.001  0.000  0.000  0.000  0.000  0.000  0.054
tot    0.122  0.010  0.338  0.010  0.000  0.000  0.046  0.000  0.000  0.526

band    13 # energy   -7.79682637 # occ.  1.00000000

ion      s     py     pz     px    dxy    dyz    dz2    dxz  x2-y2    tot
    1  0.000  0.015  0.000  0.002  0.001  0.002  0.000  0.020  0.011  0.051
    2  0.000  0.015  0.000  0.002  0.001  0.002  0.000  0.020  0.011  0.051
    3  0.000  0.004  0.000  0.037  0.000  0.000  0.000  0.001  0.000  0.042
    4  0.000  0.004  0.000  0.037  0.000  0.000  0.000  0.001  0.000  0.042
    5  0.000  0.002  0.011  0.076  0.000  0.000  0.001  0.000  0.000  0.090
    6  0.000  0.058  0.007  0.001  0.000  0.000  0.000  0.000  0.000  0.066
    7  0.000  0.015  0.000  0.010  0.000  0.000  0.000  0.000  0.000  0.026
    8  0.000  0.002  0.011  0.076  0.000  0.000  0.001  0.000  0.000  0.090
    9  0.000  0.058  0.007  0.001  0.000  0.000  0.000  0.000  0.000  0.066
   10  0.000  0.015  0.000  0.010  0.000  0.000  0.000  0.000  0.000  0.026
tot    0.000  0.188  0.035  0.250  0.003  0.005  0.002  0.041  0.024  0.549

band    14 # energy   -7.79679776 # occ.  1.00000000

ion      s     py     pz     px    dxy    dyz    dz2    dxz  x2-y2    tot
    1  0.000  0.002  0.000  0.015  0.011  0.020  0.000  0.002  0.001  0.051
    2  0.000  0.002  0.000  0.015  0.011  0.020  0.000  0.002  0.001  0.051
    3  0.000  0.037  0.000  0.004  0.000  0.001  0.000  0.000  0.000  0.042
    4  0.000  0.037  0.000  0.004  0.000  0.001  0.000  0.000  0.000  0.042
    5  0.000  0.020  0.001  0.009  0.000  0.000  0.000  0.000  0.000  0.031
    6  0.000  0.012  0.005  0.038  0.000  0.000  0.000  0.000  0.000  0.055
    7  0.000  0.055  0.011  0.028  0.000  0.000  0.001  0.000  0.000  0.095
    8  0.000  0.020  0.001  0.009  0.000  0.000  0.000  0.000  0.000  0.031
    9  0.000  0.012  0.005  0.038  0.000  0.000  0.000  0.000  0.000  0.055
   10  0.000  0.055  0.011  0.028  0.000  0.000  0.001  0.000  0.000  0.095
tot    0.000  0.250  0.035  0.188  0.024  0.041  0.002  0.005  0.003  0.549

band    15 # energy   -7.04615173 # occ.  1.00000000

ion      s     py     pz     px    dxy    dyz    dz2    dxz  x2-y2    tot
    1  0.000  0.000  0.044  0.000  0.000  0.000  0.000  0.000  0.000  0.044
    2  0.000  0.000  0.044  0.000  0.000  0.000  0.000  0.000  0.000  0.044
    3  0.000  0.000  0.000  0.000  0.000  0.000  0.000  0.000  0.000  0.000
    4  0.000  0.000  0.000  0.000  0.000  0.000  0.000  0.000  0.000  0.000
    5  0.000  0.074  0.000  0.000  0.000  0.000  0.000  0.000  0.000  0.074
    6  0.000  0.018  0.000  0.055  0.000  0.000  0.000  0.000  0.000  0.074
    7  0.000  0.018  0.000  0.055  0.000  0.000  0.000  0.000  0.000  0.074
    8  0.000  0.074  0.000  0.000  0.000  0.000  0.000  0.000  0.000  0.074
    9  0.000  0.018  0.000  0.055  0.000  0.000  0.000  0.000  0.000  0.074
   10  0.000  0.018  0.000  0.055  0.000  0.000  0.000  0.000  0.000  0.074
tot    0.000  0.221  0.089  0.221  0.001  0.000  0.000  0.000  0.001  0.534

band    16 # energy   -6.22254971 # occ.  1.00000000

ion      s     py     pz     px    dxy    dyz    dz2    dxz  x2-y2    tot
    1  0.000  0.001  0.000  0.000  0.005  0.006  0.000  0.145  0.131  0.288
    2  0.000  0.001  0.000  0.000  0.005  0.006  0.000  0.145  0.131  0.288
    3  0.000  0.000  0.000  0.000  0.000  0.000  0.000  0.000  0.001  0.001
    4  0.000  0.000  0.000  0.000  0.000  0.000  0.000  0.000  0.001  0.001
    5  0.002  0.001  0.036  0.002  0.000  0.000  0.000  0.000  0.000  0.041
    6  0.001  0.002  0.016  0.020  0.000  0.000  0.000  0.001  0.000  0.040
    7  0.000  0.006  0.004  0.027  0.000  0.000  0.000  0.001  0.000  0.039
    8  0.002  0.001  0.036  0.002  0.000  0.000  0.000  0.000  0.000  0.041
    9  0.001  0.002  0.016  0.020  0.000  0.000  0.000  0.001  0.000  0.040
   10  0.000  0.006  0.004  0.027  0.000  0.000  0.000  0.001  0.000  0.039
tot    0.005  0.023  0.111  0.097  0.011  0.012  0.001  0.293  0.264  0.816

band    17 # energy   -6.22253320 # occ.  1.00000000

ion      s     py     pz     px    dxy    dyz    dz2    dxz  x2-y2    tot
    1  0.000  0.000  0.000  0.001  0.131  0.145  0.000  0.006  0.005  0.288
    2  0.000  0.000  0.000  0.001  0.131  0.145  0.000  0.006  0.005  0.288
    3  0.000  0.000  0.000  0.000  0.001  0.000  0.000  0.000  0.000  0.001
    4  0.000  0.000  0.000  0.000  0.001  0.000  0.000  0.000  0.000  0.001
    5  0.000  0.036  0.001  0.000  0.000  0.001  0.000  0.000  0.000  0.038
    6  0.001  0.008  0.021  0.009  0.000  0.000  0.000  0.000  0.000  0.040
    7  0.002  0.004  0.033  0.001  0.000  0.000  0.000  0.000  0.000  0.041
    8  0.000  0.036  0.001  0.000  0.000  0.001  0.000  0.000  0.000  0.038
    9  0.001  0.008  0.021  0.009  0.000  0.000  0.000  0.000  0.000  0.040
   10  0.002  0.004  0.033  0.001  0.000  0.000  0.000  0.000  0.000  0.041
tot    0.005  0.097  0.111  0.023  0.264  0.293  0.001  0.012  0.011  0.816

band    18 # energy   -5.76749635 # occ.  1.00000000

ion      s     py     pz     px    dxy    dyz    dz2    dxz  x2-y2    tot
    1  0.000  0.000  0.000  0.000  0.090  0.085  0.000  0.052  0.055  0.284
    2  0.000  0.000  0.000  0.000  0.090  0.085  0.000  0.052  0.055  0.284
    3  0.000  0.000  0.000  0.000  0.000  0.000  0.000  0.001  0.000  0.002
    4  0.000  0.000  0.000  0.000  0.000  0.000  0.000  0.001  0.000  0.002
    5  0.003  0.002  0.042  0.000  0.000  0.000  0.000  0.000  0.000  0.047
    6  0.004  0.000  0.059  0.000  0.000  0.000  0.000  0.000  0.000  0.064
    7  0.000  0.001  0.001  0.003  0.000  0.000  0.000  0.000  0.000  0.006
    8  0.003  0.002  0.042  0.000  0.000  0.000  0.000  0.000  0.000  0.047
    9  0.004  0.000  0.059  0.000  0.000  0.000  0.000  0.000  0.000  0.064
   10  0.000  0.001  0.001  0.003  0.000  0.000  0.000  0.000  0.000  0.006
tot    0.014  0.007  0.205  0.009  0.182  0.172  0.000  0.107  0.111  0.806

band    19 # energy   -5.76748877 # occ.  1.00000000

ion      s     py     pz     px    dxy    dyz    dz2    dxz  x2-y2    tot
    1  0.000  0.000  0.000  0.000  0.055  0.052  0.000  0.085  0.090  0.284
    2  0.000  0.000  0.000  0.000  0.055  0.052  0.000  0.085  0.090  0.284
    3  0.000  0.000  0.000  0.000  0.000  0.001  0.000  0.000  0.000  0.002
    4  0.000  0.000  0.000  0.000  0.000  0.001  0.000  0.000  0.000  0.002
    5  0.002  0.003  0.026  0.000  0.000  0.000  0.000  0.000  0.000  0.031
    6  0.001  0.001  0.010  0.003  0.000  0.000  0.000  0.000  0.000  0.014
    7  0.005  0.000  0.067  0.000  0.000  0.000  0.000  0.000  0.000  0.072
    8  0.002  0.003  0.026  0.000  0.000  0.000  0.000  0.000  0.000  0.031
    9  0.001  0.001  0.010  0.003  0.000  0.000  0.000  0.000  0.000  0.014
   10  0.005  0.000  0.067  0.000  0.000  0.000  0.000  0.000  0.000  0.072
tot    0.014  0.009  0.205  0.007  0.111  0.107  0.000  0.172  0.182  0.806

band    20 # energy   -5.05304041 # occ.  1.00000000

ion      s     py     pz     px    dxy    dyz    dz2    dxz  x2-y2    tot
    1  0.002  0.000  0.000  0.000  0.000  0.000  0.356  0.000  0.000  0.358
    2  0.002  0.000  0.000  0.000  0.000  0.000  0.356  0.000  0.000  0.358
    3  0.003  0.000  0.036  0.000  0.000  0.000  0.002  0.000  0.000  0.042
    4  0.003  0.000  0.036  0.000  0.000  0.000  0.002  0.000  0.000  0.042
    5  0.001  0.000  0.000  0.008  0.000  0.000  0.001  0.000  0.000  0.010
    6  0.001  0.006  0.000  0.002  0.000  0.000  0.001  0.000  0.000  0.010
    7  0.001  0.006  0.000  0.002  0.000  0.000  0.001  0.000  0.000  0.010
    8  0.001  0.000  0.000  0.008  0.000  0.000  0.001  0.000  0.000  0.010
    9  0.001  0.006  0.000  0.002  0.000  0.000  0.001  0.000  0.000  0.010
   10  0.001  0.006  0.000  0.002  0.000  0.000  0.001  0.000  0.000  0.010
tot    0.014  0.023  0.073  0.023  0.001  0.000  0.720  0.000  0.001  0.857

band    21 # energy   -4.88910913 # occ.  1.00000000

ion      s     py     pz     px    dxy    dyz    dz2    dxz  x2-y2    tot
    1  0.000  0.006  0.000  0.001  0.002  0.017  0.000  0.117  0.017  0.159
    2  0.000  0.006  0.000  0.001  0.002  0.017  0.000  0.117  0.017  0.159
    3  0.000  0.003  0.000  0.021  0.000  0.000  0.000  0.000  0.001  0.026
    4  0.000  0.003  0.000  0.021  0.000  0.000  0.000  0.000  0.001  0.026
    5  0.003  0.001  0.060  0.032  0.000  0.000  0.000  0.000  0.001  0.097
    6  0.002  0.011  0.041  0.013  0.000  0.000  0.000  0.000  0.001  0.068
    7  0.000  0.000  0.002  0.006  0.000  0.000  0.000  0.000  0.000  0.009
    8  0.003  0.001  0.060  0.032  0.000  0.000  0.000  0.000  0.001  0.097
    9  0.002  0.011  0.041  0.013  0.000  0.000  0.000  0.000  0.001  0.068
   10  0.000  0.000  0.002  0.006  0.000  0.000  0.000  0.000  0.000  0.009
tot    0.011  0.041  0.205  0.147  0.006  0.034  0.000  0.234  0.041  0.718

band    22 # energy   -4.88909087 # occ.  1.00000000

ion      s     py     pz     px    dxy    dyz    dz2    dxz  x2-y2    tot
    1  0.000  0.001  0.000  0.006  0.017  0.117  0.000  0.017  0.002  0.159
    2  0.000  0.001  0.000  0.006  0.017  0.117  0.000  0.017  0.002  0.159
    3  0.000  0.021  0.000  0.003  0.001  0.000  0.000  0.000  0.000  0.026
    4  0.000  0.021  0.000  0.003  0.001  0.000  0.000  0.000  0.000  0.026
    5  0.000  0.005  0.008  0.005  0.000  0.001  0.000  0.000  0.000  0.019
    6  0.001  0.018  0.027  0.000  0.001  0.000  0.000  0.000  0.000  0.048
    7  0.004  0.029  0.066  0.007  0.001  0.000  0.000  0.000  0.000  0.107
    8  0.000  0.005  0.008  0.005  0.000  0.001  0.000  0.000  0.000  0.019
    9  0.001  0.018  0.027  0.000  0.001  0.000  0.000  0.000  0.000  0.048
   10  0.004  0.029  0.066  0.007  0.001  0.000  0.000  0.000  0.000  0.107
tot    0.011  0.147  0.205  0.041  0.041  0.234  0.000  0.034  0.006  0.718

band    23 # energy   -4.77991014 # occ.  1.00000000

ion      s     py     pz     px    dxy    dyz    dz2    dxz  x2-y2    tot
    1  0.000  0.000  0.011  0.000  0.000  0.000  0.000  0.000  0.000  0.011
    2  0.000  0.000  0.011  0.000  0.000  0.000  0.000  0.000  0.000  0.011
    3  0.001  0.000  0.008  0.000  0.000  0.000  0.002  0.000  0.000  0.011
    4  0.001  0.000  0.008  0.000  0.000  0.000  0.002  0.000  0.000  0.011
    5  0.000  0.000  0.078  0.000  0.000  0.000  0.000  0.000  0.000  0.079
    6  0.000  0.000  0.078  0.000  0.000  0.000  0.000  0.000  0.000  0.079
    7  0.000  0.000  0.078  0.000  0.000  0.000  0.000  0.000  0.000  0.079
    8  0.000  0.000  0.078  0.000  0.000  0.000  0.000  0.000  0.000  0.079
    9  0.000  0.000  0.078  0.000  0.000  0.000  0.000  0.000  0.000  0.079
   10  0.000  0.000  0.078  0.000  0.000  0.000  0.000  0.000  0.000  0.079
tot    0.005  0.001  0.506  0.001  0.000  0.000  0.004  0.000  0.000  0.516

band    24 # energy   -4.65688007 # occ.  1.00000000

ion      s     py     pz     px    dxy    dyz    dz2    dxz  x2-y2    tot
    1  0.010  0.000  0.000  0.000  0.000  0.000  0.454  0.000  0.000  0.464
    2  0.010  0.000  0.000  0.000  0.000  0.000  0.454  0.000  0.000  0.464
    3  0.000  0.000  0.000  0.000  0.000  0.000  0.000  0.000  0.000  0.000
    4  0.000  0.000  0.000  0.000  0.000  0.000  0.000  0.000  0.000  0.000
    5  0.000  0.001  0.000  0.000  0.000  0.000  0.000  0.000  0.000  0.002
    6  0.000  0.000  0.000  0.001  0.000  0.000  0.000  0.000  0.000  0.002
    7  0.000  0.000  0.000  0.001  0.000  0.000  0.000  0.000  0.000  0.002
    8  0.000  0.001  0.000  0.000  0.000  0.000  0.000  0.000  0.000  0.002
    9  0.000  0.000  0.000  0.001  0.000  0.000  0.000  0.000  0.000  0.002
   10  0.000  0.000  0.000  0.001  0.000  0.000  0.000  0.000  0.000  0.002
tot    0.020  0.004  0.000  0.004  0.000  0.001  0.909  0.001  0.000  0.940

band    25 # energy   -4.59158658 # occ.  1.00000000

ion      s     py     pz     px    dxy    dyz    dz2    dxz  x2-y2    tot
    1  0.000  0.003  0.000  0.009  0.175  0.067  0.000  0.022  0.057  0.332
    2  0.000  0.003  0.000  0.009  0.175  0.067  0.000  0.022  0.057  0.332
    3  0.000  0.000  0.000  0.000  0.001  0.000  0.000  0.000  0.000  0.001
    4  0.000  0.000  0.000  0.000  0.001  0.000  0.000  0.000  0.000  0.001
    5  0.000  0.005  0.010  0.000  0.001  0.000  0.000  0.000  0.000  0.017
    6  0.001  0.001  0.042  0.000  0.000  0.000  0.000  0.000  0.000  0.045
    7  0.000  0.002  0.011  0.003  0.000  0.000  0.000  0.000  0.000  0.017
    8  0.000  0.005  0.010  0.000  0.001  0.000  0.000  0.000  0.000  0.017
    9  0.001  0.001  0.042  0.000  0.000  0.000  0.000  0.000  0.000  0.045
   10  0.000  0.002  0.011  0.003  0.000  0.000  0.000  0.000  0.000  0.017
tot    0.003  0.022  0.126  0.024  0.353  0.135  0.000  0.044  0.116  0.823

band    26 # energy   -4.59157750 # occ.  1.00000000

ion      s     py     pz     px    dxy    dyz    dz2    dxz  x2-y2    tot
    1  0.000  0.009  0.000  0.003  0.057  0.022  0.000  0.067  0.175  0.332
    2  0.000  0.009  0.000  0.003  0.057  0.022  0.000  0.067  0.175  0.332
    3  0.000  0.000  0.000  0.000  0.000  0.000  0.000  0.000  0.001  0.001
    4  0.000  0.000  0.000  0.000  0.000  0.000  0.000  0.000  0.001  0.001
    5  0.001  0.002  0.032  0.001  0.000  0.000  0.000  0.000  0.000  0.035
    6  0.000  0.002  0.000  0.005  0.000  0.000  0.000  0.000  0.001  0.007
    7  0.001  0.000  0.031  0.003  0.000  0.000  0.000  0.000  0.000  0.035
    8  0.001  0.002  0.032  0.001  0.000  0.000  0.000  0.000  0.000  0.035
    9  0.000  0.002  0.000  0.005  0.000  0.000  0.000  0.000  0.001  0.007
   10  0.001  0.000  0.031  0.003  0.000  0.000  0.000  0.000  0.000  0.035
tot    0.003  0.024  0.126  0.022  0.116  0.044  0.000  0.135  0.353  0.823

band    27 # energy   -4.57223940 # occ.  1.00000000

ion      s     py     pz     px    dxy    dyz    dz2    dxz  x2-y2    tot
    1  0.000  0.001  0.000  0.001  0.155  0.089  0.000  0.068  0.118  0.431
    2  0.000  0.001  0.000  0.001  0.155  0.089  0.000  0.068  0.118  0.431
    3  0.000  0.003  0.000  0.004  0.000  0.000  0.000  0.000  0.000  0.007
    4  0.000  0.003  0.000  0.004  0.000  0.000  0.000  0.000  0.000  0.007
    5  0.001  0.002  0.004  0.001  0.000  0.000  0.000  0.000  0.000  0.009
    6  0.000  0.001  0.000  0.004  0.000  0.000  0.000  0.000  0.000  0.005
    7  0.001  0.003  0.007  0.000  0.000  0.000  0.000  0.000  0.000  0.011
    8  0.001  0.002  0.004  0.001  0.000  0.000  0.000  0.000  0.000  0.009
    9  0.000  0.001  0.000  0.004  0.000  0.000  0.000  0.000  0.000  0.005
   10  0.001  0.003  0.007  0.000  0.000  0.000  0.000  0.000  0.000  0.011
tot    0.004  0.018  0.023  0.020  0.309  0.178  0.001  0.136  0.237  0.927

band    28 # energy   -4.57223402 # occ.  1.00000000

ion      s     py     pz     px    dxy    dyz    dz2    dxz  x2-y2    tot
    1  0.000  0.001  0.000  0.001  0.118  0.068  0.000  0.089  0.155  0.431
    2  0.000  0.001  0.000  0.001  0.118  0.068  0.000  0.089  0.155  0.431
    3  0.000  0.004  0.000  0.003  0.000  0.000  0.000  0.000  0.000  0.007
    4  0.000  0.004  0.000  0.003  0.000  0.000  0.000  0.000  0.000  0.007
    5  0.001  0.003  0.003  0.001  0.000  0.000  0.000  0.000  0.000  0.008
    6  0.001  0.002  0.007  0.000  0.000  0.000  0.000  0.000  0.000  0.012
    7  0.000  0.000  0.001  0.004  0.000  0.000  0.000  0.000  0.000  0.006
    8  0.001  0.003  0.003  0.001  0.000  0.000  0.000  0.000  0.000  0.008
    9  0.001  0.002  0.007  0.000  0.000  0.000  0.000  0.000  0.000  0.012
   10  0.000  0.000  0.001  0.004  0.000  0.000  0.000  0.000  0.000  0.006
tot    0.004  0.020  0.023  0.018  0.237  0.136  0.001  0.178  0.309  0.927

band    29 # energy   -3.58398145 # occ.  1.00000000

ion      s     py     pz     px    dxy    dyz    dz2    dxz  x2-y2    tot
    1  0.011  0.000  0.000  0.000  0.000  0.000  0.080  0.000  0.000  0.091
    2  0.011  0.000  0.000  0.000  0.000  0.000  0.080  0.000  0.000  0.091
    3  0.000  0.000  0.133  0.000  0.000  0.000  0.006  0.000  0.000  0.139
    4  0.000  0.000  0.133  0.000  0.000  0.000  0.006  0.000  0.000  0.139
    5  0.000  0.000  0.017  0.015  0.000  0.000  0.000  0.001  0.000  0.034
    6  0.000  0.012  0.017  0.004  0.000  0.001  0.000  0.000  0.000  0.034
    7  0.000  0.012  0.017  0.004  0.000  0.001  0.000  0.000  0.000  0.034
    8  0.000  0.000  0.017  0.015  0.000  0.000  0.000  0.001  0.000  0.034
    9  0.000  0.012  0.017  0.004  0.000  0.001  0.000  0.000  0.000  0.034
   10  0.000  0.012  0.017  0.004  0.000  0.001  0.000  0.000  0.000  0.034
tot    0.024  0.046  0.369  0.046  0.000  0.003  0.173  0.003  0.000  0.665

band    30 # energy   -3.53311257 # occ.  1.00000000

ion      s     py     pz     px    dxy    dyz    dz2    dxz  x2-y2    tot
    1  0.000  0.004  0.000  0.021  0.000  0.017  0.000  0.003  0.000  0.045
    2  0.000  0.004  0.000  0.021  0.000  0.017  0.000  0.003  0.000  0.045
    3  0.000  0.003  0.000  0.015  0.001  0.000  0.000  0.001  0.003  0.022
    4  0.000  0.003  0.000  0.015  0.001  0.000  0.000  0.001  0.003  0.022
    5  0.003  0.016  0.021  0.042  0.000  0.000  0.000  0.000  0.001  0.082
    6  0.000  0.019  0.000  0.089  0.000  0.000  0.000  0.000  0.000  0.110
    7  0.002  0.003  0.015  0.069  0.001  0.000  0.000  0.000  0.000  0.089
    8  0.003  0.016  0.021  0.042  0.000  0.000  0.000  0.000  0.001  0.082
    9  0.000  0.019  0.000  0.089  0.000  0.000  0.000  0.000  0.000  0.110
   10  0.002  0.003  0.015  0.069  0.001  0.000  0.000  0.000  0.000  0.089
tot    0.009  0.088  0.073  0.469  0.003  0.035  0.001  0.008  0.009  0.695

band    31 # energy   -3.53307960 # occ.  1.00000000

ion      s     py     pz     px    dxy    dyz    dz2    dxz  x2-y2    tot
    1  0.000  0.021  0.000  0.004  0.000  0.003  0.000  0.017  0.000  0.045
    2  0.000  0.021  0.000  0.004  0.000  0.003  0.000  0.017  0.000  0.045
    3  0.000  0.015  0.000  0.003  0.003  0.001  0.000  0.000  0.001  0.022
    4  0.000  0.015  0.000  0.003  0.003  0.001  0.000  0.000  0.001  0.022
    5  0.000  0.093  0.004  0.007  0.000  0.001  0.000  0.000  0.000  0.105
    6  0.003  0.044  0.024  0.005  0.001  0.000  0.000  0.000  0.000  0.078
    7  0.001  0.061  0.009  0.026  0.000  0.000  0.000  0.000  0.000  0.098
    8  0.000  0.093  0.004  0.007  0.000  0.001  0.000  0.000  0.000  0.105
    9  0.003  0.044  0.024  0.005  0.001  0.000  0.000  0.000  0.000  0.078