<?xml version="1.0" encoding="ISO-8859-1"?>
<modeling>
 <generator>
  <i name="program" type="string">vasp </i>
  <i name="version" type="string">5.4.4.18Apr17-6-g9f103f2a35  </i>
  <i name="subversion" type="string">(build May  1 2020 15:48:39) complex            parallel </i>
  <i name="platform" type="string">LinuxGNU </i>
  <i name="date" type="string">2020 06 19 </i>
  <i name="time" type="string">08:41:27 </i>
 </generator>
 <incar>
  <i type="int" name="ISTART">     1</i>
  <i type="string" name="PREC">accurate</i>
  <i type="string" name="ALGO"> Normal</i>
  <i type="int" name="ISPIN">     2</i>
  <i name="AMIN">      0.01000000</i>
  <i type="int" name="NELM">   400</i>
  <i type="int" name="IBRION">     2</i>
  <i name="EDIFF">      0.00010000</i>
  <i type="int" name="NSW">    99</i>
  <i type="int" name="ISIF">     3</i>
  <i name="ENCUT">    520.00000000</i>
  <v name="MAGMOM">      1.26000000      1.26000000      0.60000000      0.60000000      0.60000000      0.60000000      0.60000000      0.60000000      0.60000000      0.60000000</v>
  <i type="string" name="LREAL"> Auto</i>
  <i type="int" name="ISMEAR">    -5</i>
  <i name="SIGMA">      0.05000000</i>
  <i type="logical" name="LWAVE"> F  </i>
  <i type="int" name="LORBIT">    11</i>
  <v type="int" name="KPOINT_BSE">    -1     0     0     0</v>
  <i type="int" name="NELM">   400</i>
  <i type="string" name="GGA"> Bo</i>
  <i name="PARAM1">      0.18333333</i>
  <i name="PARAM2">      0.22000000</i>
  <i type="logical" name="LUSE_VDW"> T  </i>
  <i name="AGGAC">      0.00000000</i>
 </incar>
 <structure name="primitive_cell" >
  <crystal>
   <varray name="basis" >
    <v>       6.90777700      -0.00000000       0.00000000 </v>
    <v>       3.45388800       5.98231000       0.00000000 </v>
    <v>       0.00000000       0.00000000      23.44458800 </v>
   </varray>
   <i name="volume">    968.83501932 </i>
   <varray name="rec_basis" >
    <v>       0.14476437      -0.08357974       0.00000000 </v>
    <v>       0.00000000       0.16715951      -0.00000000 </v>
    <v>      -0.00000000       0.00000000       0.04265377 </v>
   </varray>
  </crystal>
  <varray name="positions" >
   <v>       0.33333300       0.33333300       0.49992500 </v>
   <v>       0.00042000       0.37322400      -0.42624800 </v>
   <v>      -0.37364300       0.00042000      -0.42624800 </v>
   <v>       0.37322400      -0.37364300      -0.42624800 </v>
   <v>       0.37364300      -0.00042000       0.42624800 </v>
   <v>      -0.37322400       0.37364300       0.42624800 </v>
   <v>      -0.00042000      -0.37322400       0.42624800 </v>
   <v>      -0.33333300      -0.33333300      -0.49992500 </v>
   <v>       0.00000000       0.00000000       0.44821600 </v>
   <v>       0.00000000       0.00000000      -0.44821600 </v>
  </varray>
 </structure>
 <varray name="primitive_index" >
  <v type="int" >        1 </v>
  <v type="int" >        6 </v>
  <v type="int" >        5 </v>
  <v type="int" >        7 </v>
  <v type="int" >        8 </v>
  <v type="int" >       10 </v>
  <v type="int" >        9 </v>
  <v type="int" >        2 </v>
  <v type="int" >        3 </v>
  <v type="int" >        4 </v>
 </varray>
 <kpoints>
  <generation param="Gamma">
   <v type="int" name="divisions">       5        5        1 </v>
   <v name="usershift">      0.00000000       0.00000000       0.00000000 </v>
   <v name="genvec1">      0.20000000       0.00000000       0.00000000 </v>
   <v name="genvec2">      0.00000000       0.20000000       0.00000000 </v>
   <v name="genvec3">      0.00000000       0.00000000       1.00000000 </v>
   <v name="shift">      0.00000000       0.00000000       0.00000000 </v>
  </generation>
  <varray name="kpointlist" >
   <v>       0.00000000       0.00000000       0.00000000 </v>
   <v>       0.20000000       0.00000000       0.00000000 </v>
   <v>       0.40000000       0.00000000       0.00000000 </v>
   <v>       0.40000000       0.20000000       0.00000000 </v>
   <v>      -0.40000000       0.20000000       0.00000000 </v>
  </varray>
  <varray name="weights" >
   <v>       0.04000000 </v>
   <v>       0.24000000 </v>
   <v>       0.24000000 </v>
   <v>       0.24000000 </v>
   <v>       0.24000000 </v>
  </varray>
  <varray name="tetrahedronlist"  type="int" >
   <v type="int" >        6        1        1        2        2 </v>
   <v type="int" >       12        1        2        2        2 </v>
   <v type="int" >       12        2        2        3        4 </v>
   <v type="int" >       12        2        2        2        4 </v>
   <v type="int" >       12        2        3        3        4 </v>
   <v type="int" >       12        2        3        4        4 </v>
   <v type="int" >        6        2        2        4        4 </v>
   <v type="int" >       12        3        3        3        5 </v>
   <v type="int" >       12        3        3        4        5 </v>
   <v type="int" >       12        3        4        4        5 </v>
   <v type="int" >        6        3        3        5        5 </v>
   <v type="int" >       12        3        4        5        5 </v>
   <v type="int" >        6        4        4        5        5 </v>
   <v type="int" >       12        4        5        5        5 </v>
   <v type="int" >        6        5        5        5        5 </v>
  </varray>
  <i name="volumeweight">      0.00666667 </i>
 </kpoints>
 <parameters>
  <separator name="general" >
   <i type="string" name="SYSTEM">unknown system</i>
   <i type="logical" name="LCOMPAT"> F  </i>
  </separator>
  <separator name="electronic" >
   <i type="string" name="PREC">accura</i>
   <i name="ENMAX">    520.00000000</i>
   <i name="ENAUG">    544.56500000</i>
   <i name="EDIFF">      0.00010000</i>
   <i type="int" name="IALGO">    38</i>
   <i type="int" name="IWAVPR">    11</i>
   <i type="int" name="NBANDS">    48</i>
   <i name="NELECT">     64.00000000</i>
   <i type="int" name="TURBO">     0</i>
   <i type="int" name="IRESTART">     0</i>
   <i type="int" name="NREBOOT">     0</i>
   <i type="int" name="NMIN">     0</i>
   <i name="EREF">      0.00000000</i>
   <separator name="electronic smearing" >
    <i type="int" name="ISMEAR">    -5</i>
    <i name="SIGMA">      0.05000000</i>
    <i name="KSPACING">      0.50000000</i>
    <i type="logical" name="KGAMMA"> T  </i>
   </separator>
   <separator name="electronic projectors" >
    <i type="logical" name="LREAL"> T  </i>
    <v name="ROPT">     -0.00025000     -0.00025000     -0.00025000</v>
    <i type="int" name="LMAXPAW">  -100</i>
    <i type="int" name="LMAXMIX">     2</i>
    <i type="logical" name="NLSPLINE"> F  </i>
   </separator>
   <separator name="electronic startup" >
    <i type="int" name="ISTART">     0</i>
    <i type="int" name="ICHARG">     2</i>
    <i type="int" name="INIWAV">     1</i>
   </separator>
   <separator name="electronic spin" >
    <i type="int" name="ISPIN">     2</i>
    <i type="logical" name="LNONCOLLINEAR"> F  </i>
    <v name="MAGMOM">      1.26000000      1.26000000      0.60000000      0.60000000      0.60000000      0.60000000      0.60000000      0.60000000      0.60000000      0.60000000</v>
    <i name="NUPDOWN">     -1.00000000</i>
    <i type="logical" name="LSORBIT"> F  </i>
    <v name="SAXIS">      0.00000000      0.00000000      1.00000000</v>
    <i type="logical" name="LSPIRAL"> F  </i>
    <v name="QSPIRAL">      0.00000000      0.00000000      0.00000000</v>
    <i type="logical" name="LZEROZ"> F  </i>
   </separator>
   <separator name="electronic exchange-correlation" >
    <i type="logical" name="LASPH"> F  </i>
    <i type="logical" name="LMETAGGA"> F  </i>
   </separator>
   <separator name="electronic convergence" >
    <i type="int" name="NELM">   400</i>
    <i type="int" name="NELMDL">     0</i>
    <i type="int" name="NELMIN">     2</i>
    <i name="ENINI">    520.00000000</i>
    <separator name="electronic convergence detail" >
     <i type="logical" name="LDIAG"> T  </i>
     <i type="logical" name="LSUBROT"> F  </i>
     <i name="WEIMIN">      0.00100000</i>
     <i name="EBREAK">      0.00000052</i>
     <i name="DEPER">      0.30000000</i>
     <i type="int" name="NRMM">     4</i>
     <i name="TIME">      0.40000000</i>
    </separator>
   </separator>
   <separator name="electronic mixer" >
    <i name="AMIX">      0.40000000</i>
    <i name="BMIX">      1.00000000</i>
    <i name="AMIN">      0.01000000</i>
    <i name="AMIX_MAG">      1.60000000</i>
    <i name="BMIX_MAG">      1.00000000</i>
    <separator name="electronic mixer details" >
     <i type="int" name="IMIX">     4</i>
     <i type="logical" name="MIXFIRST"> F  </i>
     <i type="int" name="MAXMIX">   -45</i>
     <i name="WC">    100.00000000</i>
     <i type="int" name="INIMIX">     1</i>
     <i type="int" name="MIXPRE">     1</i>
     <i type="int" name="MREMOVE">     5</i>
    </separator>
   </separator>
   <separator name="electronic dipolcorrection" >
    <i type="logical" name="LDIPOL"> F  </i>
    <i type="logical" name="LMONO"> F  </i>
    <i type="int" name="IDIPOL">     0</i>
    <i name="EPSILON">      1.00000000</i>
    <v name="DIPOL">   -100.00000000   -100.00000000   -100.00000000</v>
    <i name="EFIELD">      0.00000000</i>
   </separator>
  </separator>
  <separator name="grids" >
   <i type="int" name="NGX">    54</i>
   <i type="int" name="NGY">    54</i>
   <i type="int" name="NGZ">   180</i>
   <i type="int" name="NGXF">   108</i>
   <i type="int" name="NGYF">   108</i>
   <i type="int" name="NGZF">   360</i>
   <i type="logical" name="ADDGRID"> F  </i>
  </separator>
  <separator name="ionic" >
   <i type="int" name="NSW">    99</i>
   <i type="int" name="IBRION">     2</i>
   <i type="int" name="MDALGO">     0</i>
   <i type="int" name="ISIF">     3</i>
   <i name="PSTRESS">      0.00000000</i>
   <i name="EDIFFG">      0.00100000</i>
   <i type="int" name="NFREE">     1</i>
   <i name="POTIM">      0.50000000</i>
   <i name="SMASS">     -3.00000000</i>
   <i name="SCALEE">      1.00000000</i>
  </separator>
  <separator name="ionic md" >
   <i name="TEBEG">      0.00010000</i>
   <i name="TEEND">      0.00010000</i>
   <i type="int" name="NBLOCK">     1</i>
   <i type="int" name="KBLOCK">    99</i>
   <i type="int" name="NPACO">   256</i>
   <i name="APACO">     16.00000000</i>
  </separator>
  <separator name="symmetry" >
   <i type="int" name="ISYM">     2</i>
   <i name="SYMPREC">      0.00001000</i>
  </separator>
  <separator name="dos" >
   <i type="int" name="LORBIT">    11</i>
   <v name="RWIGS">     -1.00000000     -1.00000000     -1.00000000</v>
   <i type="int" name="NEDOS">   301</i>
   <i name="EMIN">     10.00000000</i>
   <i name="EMAX">    -10.00000000</i>
   <i name="EFERMI">      0.00000000</i>
  </separator>
  <separator name="writing" >
   <i type="int" name="NWRITE">     2</i>
   <i type="logical" name="LWAVE"> F  </i>
   <i type="logical" name="LDOWNSAMPLE"> F  </i>
   <i type="logical" name="LCHARG"> T  </i>
   <i type="logical" name="LPARD"> F  </i>
   <i type="logical" name="LVTOT"> F  </i>
   <i type="logical" name="LVHAR"> F  </i>
   <i type="logical" name="LELF"> F  </i>
   <i type="logical" name="LOPTICS"> F  </i>
   <v name="STM">      0.00000000      0.00000000      0.00000000      0.00000000      0.00000000      0.00000000      0.00000000</v>
  </separator>
  <separator name="performance" >
   <i type="int" name="NPAR">    16</i>
   <i type="int" name="NSIM">     4</i>
   <i type="int" name="NBLK">    -1</i>
   <i type="logical" name="LPLANE"> T  </i>
   <i type="logical" name="LSCALAPACK"> T  </i>
   <i type="logical" name="LSCAAWARE"> F  </i>
   <i type="logical" name="LSCALU"> F  </i>
   <i type="logical" name="LASYNC"> F  </i>
   <i type="logical" name="LORBITALREAL"> F  </i>
  </separator>
  <separator name="miscellaneous" >
   <i type="int" name="IDIOT">     3</i>
   <i type="int" name="ISPECIAL">     0</i>
   <i type="logical" name="LMUSIC"> F  </i>
   <v name="POMASS">     58.69000000     72.61000000     78.96000000</v>
   <v name="DARWINR">      0.00000000      0.00000000      0.00000000</v>
   <v name="DARWINV">      1.00000000      1.00000000      1.00000000</v>
   <i type="logical" name="LCORR"> T  </i>
  </separator>
  <i type="logical" name="GGA_COMPAT"> T  </i>
  <i type="logical" name="LBERRY"> F  </i>
  <i type="int" name="ICORELEVEL">     0</i>
  <i type="logical" name="LDAU"> F  </i>
  <i type="int" name="I_CONSTRAINED_M">     0</i>
  <separator name="electronic exchange-correlation" >
   <i type="string" name="GGA">BO</i>
   <i type="int" name="VOSKOWN">     0</i>
   <i type="logical" name="LHFCALC"> F  </i>
   <i type="string" name="PRECFOCK"></i>
   <i type="logical" name="LSYMGRAD"> F  </i>
   <i type="logical" name="LHFONE"> F  </i>
   <i type="logical" name="LRHFCALC"> F  </i>
   <i type="logical" name="LTHOMAS"> F  </i>
   <i type="logical" name="LMODELHF"> F  </i>
   <i name="ENCUT4O">     -1.00000000</i>
   <i type="int" name="EXXOEP">     0</i>
   <i type="int" name="FOURORBIT">     0</i>
   <i name="AEXX">      0.00000000</i>
   <i name="HFALPHA">      0.00000000</i>
   <i name="MCALPHA">      0.00000000</i>
   <i name="ALDAX">      1.00000000</i>
   <i name="AGGAX">      1.00000000</i>
   <i name="ALDAC">      1.00000000</i>
   <i name="AGGAC">      0.00000000</i>
   <i type="int" name="NKREDX">     1</i>
   <i type="int" name="NKREDY">     1</i>
   <i type="int" name="NKREDZ">     1</i>
   <i type="logical" name="SHIFTRED"> F  </i>
   <i type="logical" name="ODDONLY"> F  </i>
   <i type="logical" name="EVENONLY"> F  </i>
   <i type="int" name="LMAXFOCK">     0</i>
   <i type="int" name="NMAXFOCKAE">     0</i>
   <i type="logical" name="LFOCKAEDFT"> F  </i>
   <i name="HFSCREEN">      0.00000000</i>
   <i name="HFSCREENC">      0.00000000</i>
   <i type="int" name="NBANDSGWLOW">     0</i>
  </separator>
  <separator name="vdW DFT" >
   <i type="logical" name="LUSE_VDW"> T  </i>
   <i name="Zab_VDW">     -0.84910000</i>
   <i name="PARAM1">      0.18333333</i>
   <i name="PARAM2">      0.22000000</i>
   <i name="PARAM3">      0.00000000</i>
  </separator>
  <separator name="model GW" >
   <i type="int" name="MODEL_GW">     0</i>
   <i name="MODEL_EPS0">     58.13010116</i>
   <i name="MODEL_ALPHA">      1.00000000</i>
  </separator>
  <separator name="linear response parameters" >
   <i type="logical" name="LEPSILON"> F  </i>
   <i type="logical" name="LRPA"> F  </i>
   <i type="logical" name="LNABLA"> F  </i>
   <i type="logical" name="LVEL"> F  </i>
   <i type="int" name="KINTER">     0</i>
   <i name="CSHIFT">      0.10000000</i>
   <i name="OMEGAMAX">     -1.00000000</i>
   <i name="DEG_THRESHOLD">      0.00200000</i>
   <i name="RTIME">     -0.10000000</i>
   <i name="WPLASMAI">      0.00000000</i>
   <v name="DFIELD">      0.00000000      0.00000000      0.00000000</v>
   <v name="WPLASMA">      0.00000000      0.00000000      0.00000000      0.00000000      0.00000000      0.00000000      0.00000000      0.00000000      0.00000000</v>
  </separator>
  <separator name="orbital magnetization" >
   <i type="logical" name="NUCIND"> F  </i>
   <v name="MAGPOS">      0.00000000      0.00000000      0.00000000</v>
   <i type="logical" name="LNICSALL"> T  </i>
   <i type="logical" name="ORBITALMAG"> F  </i>
   <i type="logical" name="LMAGBLOCH"> F  </i>
   <i type="logical" name="LCHIMAG"> F  </i>
   <i type="logical" name="LGAUGE"> T  </i>
   <i type="int" name="MAGATOM">     0</i>
   <v name="MAGDIPOL">      0.00000000      0.00000000      0.00000000</v>
   <v name="AVECCONST">      0.00000000      0.00000000      0.00000000</v>
  </separator>
  <separator name="response functions" >
   <i type="logical" name="LADDER"> F  </i>
   <i type="logical" name="LRPAFORCE"> F  </i>
   <i type="logical" name="LFXC"> F  </i>
   <i type="logical" name="LHARTREE"> T  </i>
   <i type="int" name="IBSE">     0</i>
   <v type="int" name="KPOINT">    -1     0     0     0</v>
   <i type="logical" name="LTCTE"> F  </i>
   <i type="logical" name="LTETE"> F  </i>
   <i type="logical" name="LTRIPLET"> F  </i>
   <i type="logical" name="LFXCEPS"> F  </i>
   <i type="logical" name="LFXHEG"> F  </i>
   <i type="int" name="NATURALO">     2</i>
   <i type="logical" name="L2ORDER"> F  </i>
   <i type="logical" name="LMP2LT"> F  </i>
   <i type="logical" name="LUSEW"> F  </i>
   <i name="ENCUTGW">     -2.00000000</i>
   <i name="ENCUTGWSOFT">     -2.00000000</i>
   <i name="ENCUTLF">     -1.00000000</i>
   <i type="int" name="LMAXMP2">    -1</i>
   <i name="SCISSOR">      0.00000000</i>
   <i type="int" name="NOMEGA">     0</i>
   <i type="int" name="NOMEGAR">     0</i>
   <i type="int" name="NBANDSGW">    -1</i>
   <i type="int" name="NBANDSO">    -1</i>
   <i type="int" name="NBANDSV">    -1</i>
   <i type="int" name="NELM">   400</i>
   <i type="int" name="NELMHF">     1</i>
   <i type="int" name="DIM">     3</i>
   <i type="int" name="ANTIRES">     0</i>
   <i name="OMEGAMAX">    -30.00000000</i>
   <i name="OMEGAMIN">    -30.00000000</i>
   <i name="OMEGATL">   -200.00000000</i>
   <i type="int" name="OMEGAGRID">   140</i>
   <i name="CSHIFT">     -0.10000000</i>
   <i type="logical" name="SELFENERGY"> F  </i>
   <i type="logical" name="LSPECTRAL"> F  </i>
   <i type="logical" name="LSPECTRALGW"> F  </i>
   <i type="logical" name="LSINGLES"> F  </i>
   <i type="logical" name="LFERMIGW"> F  </i>
   <i type="logical" name="ODDONLYGW"> F  </i>
   <i type="logical" name="EVENONLYGW"> F  </i>
   <i type="int" name="NKREDLFX">     1</i>
   <i type="int" name="NKREDLFY">     1</i>
   <i type="int" name="NKREDLFZ">     1</i>
   <i type="int" name="MAXMEM">  2800</i>
   <i type="int" name="TELESCOPE">     0</i>
   <i type="int" name="TAUPAR">     1</i>
   <i type="int" name="OMEGAPAR">    -1</i>
   <i name="LAMBDA">      1.00000000</i>
  </separator>
  <separator name="External order field" >
   <i name="OFIELD_KAPPA">      0.00000000</i>
   <v name="OFIELD_K">      0.00000000      0.00000000      0.00000000</v>
   <i name="OFIELD_Q6_NEAR">      0.00000000</i>
   <i name="OFIELD_Q6_FAR">      0.00000000</i>
   <i name="OFIELD_A">      0.00000000</i>
  </separator>
 </parameters>
 <atominfo>
  <atoms>      10 </atoms>
  <types>       3 </types>
  <array name="atoms" >
   <dimension dim="1">ion</dimension>
   <field type="string">element</field>
   <field type="int">atomtype</field>
   <set>
    <rc><c>Ni</c><c>   1</c></rc>
    <rc><c>Ni</c><c>   1</c></rc>
    <rc><c>Ge</c><c>   2</c></rc>
    <rc><c>Ge</c><c>   2</c></rc>
    <rc><c>Se</c><c>   3</c></rc>
    <rc><c>Se</c><c>   3</c></rc>
    <rc><c>Se</c><c>   3</c></rc>
    <rc><c>Se</c><c>   3</c></rc>
    <rc><c>Se</c><c>   3</c></rc>
    <rc><c>Se</c><c>   3</c></rc>
   </set>
  </array>
  <array name="atomtypes" >
   <dimension dim="1">type</dimension>
   <field type="int">atomspertype</field>
   <field type="string">element</field>
   <field>mass</field>
   <field>valence</field>
   <field type="string">pseudopotential</field>
   <set>
    <rc><c>   2</c><c>Ni</c><c>     58.69000000</c><c>     10.00000000</c><c> PAW_PBE Ni 06Sep2000                   </c></rc>
    <rc><c>   2</c><c>Ge</c><c>     72.61000000</c><c>      4.00000000</c><c> PAW_PBE Ge 05Jan2001                   </c></rc>
    <rc><c>   6</c><c>Se</c><c>     78.96000000</c><c>      6.00000000</c><c> PAW_PBE Se 06Sep2000                   </c></rc>
   </set>
  </array>
 </atominfo>
 <structure name="initialpos" >
  <crystal>
   <varray name="basis" >
    <v>       6.90777700      -0.00000000       0.00000000 </v>
    <v>       3.45388800       5.98231000       0.00000000 </v>
    <v>       0.00000000       0.00000000      23.44458800 </v>
   </varray>
   <i name="volume">    968.83501932 </i>
   <varray name="rec_basis" >
    <v>       0.14476437      -0.08357974       0.00000000 </v>
    <v>       0.00000000       0.16715951      -0.00000000 </v>
    <v>      -0.00000000       0.00000000       0.04265377 </v>
   </varray>
  </crystal>
  <varray name="positions" >
   <v>       0.33333300       0.33333300       0.49992500 </v>
   <v>       0.66666700       0.66666700       0.50007500 </v>
   <v>       0.00000000       0.00000000       0.44821600 </v>
   <v>       0.00000000       0.00000000       0.55178400 </v>
   <v>       0.62635700       0.00042000       0.57375200 </v>
   <v>       0.00042000       0.37322400       0.57375200 </v>
   <v>       0.37322400       0.62635700       0.57375200 </v>
   <v>       0.37364300       0.99958000       0.42624800 </v>
   <v>       0.99958000       0.62677600       0.42624800 </v>
   <v>       0.62677600       0.37364300       0.42624800 </v>
  </varray>
  <varray name="selective"  type="logical" >
   <v type="logical" >  T  T  T </v>
   <v type="logical" >  T  T  T </v>
   <v type="logical" >  F  F  F </v>
   <v type="logical" >  F  F  F </v>
   <v type="logical" >  T  T  T </v>
   <v type="logical" >  T  T  T </v>
   <v type="logical" >  T  T  T </v>
   <v type="logical" >  T  T  T </v>
   <v type="logical" >  T  T  T </v>
   <v type="logical" >  T  T  T </v>
  </varray>
  <nose>
   <v>      -3.00000000       0.00000000       0.00010000       0.00010000 </v>
  </nose>
 </structure>
 <calculation>
  <scstep>
   <time name="dav">   22.56   22.81</time>
   <time name="total">   74.97   75.55</time>
   <energy>
    <i name="alphaZ">     42.65598769 </i>
    <i name="ewald">   8065.03639907 </i>
    <i name="hartreedc"> -11593.22773585 </i>
    <i name="XCdc">     34.48163655 </i>
    <i name="pawpsdc">   2459.05297163 </i>
    <i name="pawaedc">  -2474.59114635 </i>
    <i name="eentropy">      0.00000000 </i>
    <i name="bandstr">    -47.12150339 </i>
    <i name="atom">   3925.95288657 </i>
    <i name="e_fr_energy">    412.23949592 </i>
    <i name="e_wo_entrp">    412.23949592 </i>
    <i name="e_0_energy">    412.23949592 </i>
   </energy>
  </scstep>
  <scstep>
   <time name="dav">   33.94   34.10</time>
   <time name="total">   33.95   34.10</time>
   <energy>
    <i name="e_fr_energy">     25.83972448 </i>
    <i name="e_wo_entrp">     25.83972448 </i>
    <i name="e_0_energy">     25.83972448 </i>
   </energy>
  </scstep>
  <scstep>
   <time name="dav">   27.21   27.23</time>
   <time name="total">   27.21   27.24</time>
   <energy>
    <i name="e_fr_energy">    -35.08663017 </i>
    <i name="e_wo_entrp">    -35.08663017 </i>
    <i name="e_0_energy">    -35.08663017 </i>
   </energy>
  </scstep>
  <scstep>
   <time name="dav">   28.69   28.95</time>
   <time name="total">   28.70   28.95</time>
   <energy>
    <i name="e_fr_energy">    -37.28313089 </i>
    <i name="e_wo_entrp">    -37.28313089 </i>
    <i name="e_0_energy">    -37.28313089 </i>
   </energy>
  </scstep>
  <scstep>
   <time name="dav">   26.59   26.76</time>
   <time name="total">   28.70   28.95</time>
   <energy>
    <i name="e_fr_energy">    -37.33129121 </i>
    <i name="e_wo_entrp">    -37.33129121 </i>
    <i name="e_0_energy">    -37.33129121 </i>
   </energy>
  </scstep>
  <scstep>
   <time name="dav">   27.62   27.77</time>
   <time name="total">   81.75   82.31</time>
   <energy>
    <i name="e_fr_energy">    -85.75332794 </i>
    <i name="e_wo_entrp">    -85.75332794 </i>
    <i name="e_0_energy">    -85.75332794 </i>
   </energy>
  </scstep>
  <scstep>
   <time name="dav">   26.27   27.40</time>
   <time name="total">   79.99   81.35</time>
   <energy>
    <i name="e_fr_energy">    -44.86370321 </i>
    <i name="e_wo_entrp">    -44.86370321 </i>
    <i name="e_0_energy">    -44.86370321 </i>
   </energy>
  </scstep>
  <scstep>
   <time name="dav">   27.29   27.45</time>
   <time name="total">   79.85   81.90</time>
   <energy>
    <i name="e_fr_energy">    -34.22068146 </i>
    <i name="e_wo_entrp">    -34.22068146 </i>
    <i name="e_0_energy">    -34.22068146 </i>
   </energy>
  </scstep>
  <scstep>
   <time name="dav">   33.97   34.13</time>
   <time name="total">   87.45   87.69</time>
   <energy>
    <i name="e_fr_energy">    -33.01790307 </i>
    <i name="e_wo_entrp">    -33.01790307 </i>
    <i name="e_0_energy">    -33.01790307 </i>
   </energy>
  </scstep>
  <scstep>
   <time name="dav">   31.54   31.75</time>
   <time name="total">   84.45   85.00</time>
   <energy>
    <i name="e_fr_energy">    -32.70668581 </i>
    <i name="e_wo_entrp">    -32.70668581 </i>
    <i name="e_0_energy">    -32.70668581 </i>
   </energy>
  </scstep>
  <scstep>
   <time name="dav">   26.31   26.53</time>
   <time name="total">   79.31   79.70</time>
   <energy>
    <i name="e_fr_energy">    -32.78977604 </i>
    <i name="e_wo_entrp">    -32.78977604 </i>
    <i name="e_0_energy">    -32.78977604 </i>
   </energy>
  </scstep>
  <scstep>
   <time name="dav">   29.73   30.07</time>
   <time name="total">   82.47   83.39</time>
   <energy>
    <i name="e_fr_energy">    -33.13151391 </i>
    <i name="e_wo_entrp">    -33.13151391 </i>
    <i name="e_0_energy">    -33.13151391 </i>
   </energy>
  </scstep>
  <scstep>
   <time name="dav">   26.00   26.30</time>
   <time name="total">   79.06   79.51</time>
   <energy>
    <i name="e_fr_energy">    -33.23357233 </i>
    <i name="e_wo_entrp">    -33.23357233 </i>
    <i name="e_0_energy">    -33.23357233 </i>
   </energy>
  </scstep>
  <scstep>
   <time name="dav">   27.59   27.73</time>
   <time name="total">   80.60   80.99</time>
   <energy>
    <i name="e_fr_energy">    -33.17107382 </i>
    <i name="e_wo_entrp">    -33.17107382 </i>
    <i name="e_0_energy">    -33.17107382 </i>
   </energy>
  </scstep>
  <scstep>
   <time name="dav">   24.45   24.70</time>
   <time name="total">   77.66   77.93</time>
   <energy>
    <i name="e_fr_energy">    -33.18399855 </i>
    <i name="e_wo_entrp">    -33.18399855 </i>
    <i name="e_0_energy">    -33.18399855 </i>
   </energy>
  </scstep>
  <scstep>
   <time name="dav">   22.25   22.44</time>
   <time name="total">   75.23   75.71</time>
   <energy>
    <i name="e_fr_energy">    -33.23236528 </i>
    <i name="e_wo_entrp">    -33.23236528 </i>
    <i name="e_0_energy">    -33.23236528 </i>
   </energy>
  </scstep>
  <scstep>
   <time name="dav">   22.40   22.42</time>
   <time name="total">   75.55   75.68</time>
   <energy>
    <i name="e_fr_energy">    -33.23619216 </i>
    <i name="e_wo_entrp">    -33.23619216 </i>
    <i name="e_0_energy">    -33.23619216 </i>
   </energy>
  </scstep>
  <scstep>
   <time name="dav">   23.90   24.10</time>
   <time name="total">   76.54   77.13</time>
   <energy>
    <i name="e_fr_energy">    -33.23101089 </i>
    <i name="e_wo_entrp">    -33.23101089 </i>
    <i name="e_0_energy">    -33.23101089 </i>
   </energy>
  </scstep>
  <scstep>
   <time name="dav">   24.99   25.07</time>
   <time name="total">   77.92   78.27</time>
   <energy>
    <i name="e_fr_energy">    -33.23213539 </i>
    <i name="e_wo_entrp">    -33.23213539 </i>
    <i name="e_0_energy">    -33.23213539 </i>
   </energy>
  </scstep>
  <scstep>
   <time name="dav">   23.23   23.37</time>
   <time name="total">   76.08   76.40</time>
   <energy>
    <i name="e_fr_energy">    -33.23383547 </i>
    <i name="e_wo_entrp">    -33.23383547 </i>
    <i name="e_0_energy">    -33.23383547 </i>
   </energy>
  </scstep>
  <scstep>
   <time name="dav">   19.90   20.02</time>
   <time name="total">   72.78   73.29</time>
   <energy>
    <i name="e_fr_energy">    -33.23509586 </i>
    <i name="e_wo_entrp">    -33.23509586 </i>
    <i name="e_0_energy">    -33.23509586 </i>
   </energy>
  </scstep>
  <scstep>
   <time name="dav">   18.61   18.72</time>
   <time name="total">   69.51   69.83</time>
   <energy>
    <i name="alphaZ">     42.65598769 </i>
    <i name="ewald">   8065.03639907 </i>
    <i name="hartreedc"> -11575.46656329 </i>
    <i name="XCdc">     33.90918961 </i>
    <i name="pawpsdc">   2465.66360946 </i>
    <i name="pawaedc">  -2482.38603957 </i>
    <i name="eentropy">      0.00000000 </i>
    <i name="bandstr">   -508.60060928 </i>
    <i name="atom">   3925.95288657 </i>
    <i name="e_fr_energy">    -33.23513973 </i>
    <i name="e_wo_entrp">    -33.23513973 </i>
    <i name="e_0_energy">    -33.23513973 </i>
   </energy>
  </scstep>
  <structure>
   <crystal>
    <varray name="basis" >
     <v>       6.90777700      -0.00000000       0.00000000 </v>
     <v>       3.45388800       5.98231000       0.00000000 </v>
     <v>       0.00000000       0.00000000      23.44458800 </v>
    </varray>
    <i name="volume">    968.83501932 </i>
    <varray name="rec_basis" >
     <v>       0.14476437      -0.08357974       0.00000000 </v>
     <v>       0.00000000       0.16715951      -0.00000000 </v>
     <v>      -0.00000000       0.00000000       0.04265377 </v>
    </varray>
   </crystal>
   <varray name="positions" >
    <v>       0.33333300       0.33333300       0.49992500 </v>
    <v>       0.66666700       0.66666700       0.50007500 </v>
    <v>       0.00000000       0.00000000       0.44821600 </v>
    <v>       0.00000000       0.00000000       0.55178400 </v>
    <v>       0.62635700       0.00042000       0.57375200 </v>
    <v>       0.00042000       0.37322400       0.57375200 </v>
    <v>       0.37322400       0.62635700       0.57375200 </v>
    <v>       0.37364300       0.99958000       0.42624800 </v>
    <v>       0.99958000       0.62677600       0.42624800 </v>
    <v>       0.62677600       0.37364300       0.42624800 </v>
   </varray>
  </structure>
  <varray name="forces" >
   <v>      -0.00000000      -0.00000000       0.00897431 </v>
   <v>      -0.00000000       0.00000000      -0.00897431 </v>
   <v>      -0.00000000       0.00000000      -0.81665939 </v>
   <v>      -0.00000000      -0.00000000       0.81665939 </v>
   <v>       0.43802385      -0.00437597      -1.22751740 </v>
   <v>      -0.22280160      -0.37715178      -1.22751740 </v>
   <v>      -0.21522226       0.38152775      -1.22751740 </v>
   <v>      -0.43802385       0.00437597       1.22751740 </v>
   <v>       0.22280160       0.37715178       1.22751740 </v>
   <v>       0.21522226      -0.38152775       1.22751740 </v>
  </varray>
  <varray name="stress" >
   <v>     -34.93332081       0.00000499      -0.00000000 </v>
   <v>       0.00000085     -34.93331654      -0.00000000 </v>
   <v>      -0.00000000       0.00000000     -18.05294227 </v>
  </varray>
  <energy>
   <i name="e_fr_energy">    -33.23513973 </i>
   <i name="e_wo_entrp">    -33.23513973 </i>
   <i name="e_0_energy">      0.00000000 </i>
  </energy>
  <time name="totalsc"> 1677.98 1689.60</time>
 </calculation>
 <calculation>
  <scstep>
   <time name="dav">   30.34   30.72</time>
   <time name="total">   84.04   84.61</time>
   <energy>
    <i name="alphaZ">     55.82580777 </i>
    <i name="ewald">   9884.23785283 </i>
    <i name="hartreedc"> -13680.33498457 </i>
    <i name="XCdc">     48.81107286 </i>
    <i name="pawpsdc">   2465.64583690 </i>
    <i name="pawaedc">  -2482.36732643 </i>
    <i name="eentropy">      0.00000000 </i>
    <i name="bandstr">   -314.55765221 </i>
    <i name="atom">   3925.95288657 </i>
    <i name="e_fr_energy">    -96.78650627 </i>
    <i name="e_wo_entrp">    -96.78650627 </i>
    <i name="e_0_energy">    -96.78650627 </i>
   </energy>
  </scstep>
  <scstep>
   <time name="dav">   34.04   34.53</time>
   <time name="total">   87.48   88.38</time>
   <energy>
    <i name="e_fr_energy">   -312.91336758 </i>
    <i name="e_wo_entrp">   -312.91336758 </i>
    <i name="e_0_energy">   -312.91336758 </i>
   </energy>
  </scstep>
  <scstep>
   <time name="dav">   27.21   27.36</time>
   <time name="total">   81.02   81.34</time>
   <energy>
    <i name="e_fr_energy">    -79.16004298 </i>
    <i name="e_wo_entrp">    -79.16004298 </i>
    <i name="e_0_energy">    -79.16004298 </i>
   </energy>
  </scstep>
  <scstep>
   <time name="dav">   30.00   30.33</time>
   <time name="total">   83.58   84.13</time>
   <energy>
    <i name="e_fr_energy">    -39.75524742 </i>
    <i name="e_wo_entrp">    -39.75524742 </i>
    <i name="e_0_energy">    -39.75524742 </i>
   </energy>
  </scstep>
  <scstep>
   <time name="dav">   28.92   29.26</time>
   <time name="total">   82.73   83.24</time>
   <energy>
    <i name="e_fr_energy">    -36.23193534 </i>
    <i name="e_wo_entrp">    -36.23193534 </i>
    <i name="e_0_energy">    -36.23193534 </i>
   </energy>
  </scstep>
  <scstep>
   <time name="dav">   30.60   30.87</time>
   <time name="total">   84.02   84.78</time>
   <energy>
    <i name="e_fr_energy">    -35.88291111 </i>
    <i name="e_wo_entrp">    -35.88291111 </i>
    <i name="e_0_energy">    -35.88291111 </i>
   </energy>
  </scstep>
  <scstep>
   <time name="dav">   27.52   27.58</time>
   <time name="total">   81.28   81.52</time>
   <energy>
    <i name="e_fr_energy">    -35.93007126 </i>
    <i name="e_wo_entrp">    -35.93007126 </i>
    <i name="e_0_energy">    -35.93007126 </i>
   </energy>
  </scstep>
  <scstep>
   <time name="dav">   27.54   27.57</time>
   <time name="total">   81.20   81.51</time>
   <energy>
    <i name="e_fr_energy">    -35.92622746 </i>
    <i name="e_wo_entrp">    -35.92622746 </i>
    <i name="e_0_energy">    -35.92622746 </i>
   </energy>
  </scstep>
  <scstep>
   <time name="dav">   27.72   27.90</time>
   <time name="total">   81.39   81.91</time>
   <energy>
    <i name="e_fr_energy">    -35.93275686 </i>
    <i name="e_wo_entrp">    -35.93275686 </i>
    <i name="e_0_energy">    -35.93275686 </i>
   </energy>
  </scstep>
  <scstep>
   <time name="dav">   25.06   25.16</time>
   <time name="total">   78.60   79.24</time>
   <energy>
    <i name="e_fr_energy">    -35.93335823 </i>
    <i name="e_wo_entrp">    -35.93335823 </i>
    <i name="e_0_energy">    -35.93335823 </i>
   </energy>
  </scstep>
  <scstep>
   <time name="dav">   27.57   27.82</time>
   <time name="total">   81.14   81.70</time>
   <energy>
    <i name="e_fr_energy">    -35.93421794 </i>
    <i name="e_wo_entrp">    -35.93421794 </i>
    <i name="e_0_energy">    -35.93421794 </i>
   </energy>
  </scstep>
  <scstep>
   <time name="dav">   31.39   31.52</time>
   <time name="total">   85.18   85.61</time>
   <energy>
    <i name="e_fr_energy">    -35.93486859 </i>
    <i name="e_wo_entrp">    -35.93486859 </i>
    <i name="e_0_energy">    -35.93486859 </i>
   </energy>
  </scstep>
  <scstep>
   <time name="dav">   28.10   28.23</time>
   <time name="total">   83.37   84.01</time>
   <energy>
    <i name="e_fr_energy">    -35.93412055 </i>
    <i name="e_wo_entrp">    -35.93412055 </i>
    <i name="e_0_energy">    -35.93412055 </i>
   </energy>
  </scstep>
  <scstep>
   <time name="dav">   23.16   23.34</time>
   <time name="total">   76.76   77.32</time>
   <energy>
    <i name="e_fr_energy">    -35.93269573 </i>
    <i name="e_wo_entrp">    -35.93269573 </i>
    <i name="e_0_energy">    -35.93269573 </i>
   </energy>
  </scstep>
  <scstep>
   <time name="dav">   28.08   28.21</time>
   <time name="total">   81.74   82.14</time>
   <energy>
    <i name="e_fr_energy">    -35.93340660 </i>
    <i name="e_wo_entrp">    -35.93340660 </i>
    <i name="e_0_energy">    -35.93340660 </i>
   </energy>
  </scstep>
  <scstep>
   <time name="dav">   25.67   25.87</time>
   <time name="total">   79.50   79.92</time>
   <energy>
    <i name="e_fr_energy">    -35.93081133 </i>
    <i name="e_wo_entrp">    -35.93081133 </i>
    <i name="e_0_energy">    -35.93081133 </i>
   </energy>
  </scstep>
  <scstep>
   <time name="dav">   29.60   29.71</time>
   <time name="total">   83.52   83.70</time>
   <energy>
    <i name="e_fr_energy">    -35.92901776 </i>
    <i name="e_wo_entrp">    -35.92901776 </i>
    <i name="e_0_energy">    -35.92901776 </i>
   </energy>
  </scstep>
  <scstep>
   <time name="dav">   28.22   28.44</time>
   <time name="total">   82.10   82.48</time>
   <energy>
    <i name="e_fr_energy">    -35.92817758 </i>
    <i name="e_wo_entrp">    -35.92817758 </i>
    <i name="e_0_energy">    -35.92817758 </i>
   </energy>
  </scstep>
  <scstep>
   <time name="dav">   27.85   28.08</time>
   <time name="total">   81.08   82.09</time>
   <energy>
    <i name="e_fr_energy">    -35.92723833 </i>
    <i name="e_wo_entrp">    -35.92723833 </i>
    <i name="e_0_energy">    -35.92723833 </i>
   </energy>
  </scstep>
  <scstep>
   <time name="dav">   25.35   25.50</time>
   <time name="total">   78.96   79.35</time>
   <energy>
    <i name="e_fr_energy">    -35.92678281 </i>
    <i name="e_wo_entrp">    -35.92678281 </i>
    <i name="e_0_energy">    -35.92678281 </i>
   </energy>
  </scstep>
  <scstep>
   <time name="dav">   27.02   27.20</time>
   <time name="total">   80.59   80.99</time>
   <energy>
    <i name="e_fr_energy">    -35.92657987 </i>
    <i name="e_wo_entrp">    -35.92657987 </i>
    <i name="e_0_energy">    -35.92657987 </i>
   </energy>
  </scstep>
  <scstep>
   <time name="dav">   21.41   21.61</time>
   <time name="total">   75.20   75.58</time>
   <energy>
    <i name="e_fr_energy">    -35.92612357 </i>
    <i name="e_wo_entrp">    -35.92612357 </i>
    <i name="e_0_energy">    -35.92612357 </i>
   </energy>
  </scstep>
  <scstep>
   <time name="dav">   21.55   21.60</time>
   <time name="total">   75.44   75.57</time>
   <energy>
    <i name="e_fr_energy">    -35.92596665 </i>
    <i name="e_wo_entrp">    -35.92596665 </i>
    <i name="e_0_energy">    -35.92596665 </i>
   </energy>
  </scstep>
  <scstep>
   <time name="dav">   19.84   19.92</time>
   <time name="total">   73.51   73.88</time>
   <energy>
    <i name="e_fr_energy">    -35.92584126 </i>
    <i name="e_wo_entrp">    -35.92584126 </i>
    <i name="e_0_energy">    -35.92584126 </i>
   </energy>
  </scstep>
  <scstep>
   <time name="dav">   18.15   18.26</time>
   <time name="total">   69.78   70.03</time>
   <energy>
    <i name="alphaZ">     55.82580777 </i>
    <i name="ewald">   9884.23785283 </i>
    <i name="hartreedc"> -13425.93664221 </i>
    <i name="XCdc">     39.29991097 </i>
    <i name="pawpsdc">   2600.78287303 </i>
    <i name="pawaedc">  -2620.37271182 </i>
    <i name="eentropy">      0.00000000 </i>
    <i name="bandstr">   -495.71572157 </i>
    <i name="atom">   3925.95288657 </i>
    <i name="e_fr_energy">    -35.92574441 </i>
    <i name="e_wo_entrp">    -35.92574441 </i>
    <i name="e_0_energy">    -35.92574441 </i>
   </energy>
  </scstep>
  <structure>
   <crystal>
    <varray name="basis" >
     <v>       6.20381597       0.00000010      -0.00000000 </v>
     <v>       3.10190755       5.37266202      -0.00000000 </v>
     <v>      -0.00000000       0.00000000      22.20988917 </v>
    </varray>
    <i name="volume">    740.27795216 </i>
    <varray name="rec_basis" >
     <v>       0.16119111      -0.09306372       0.00000000 </v>
     <v>      -0.00000000       0.18612747      -0.00000000 </v>
     <v>       0.00000000       0.00000000       0.04502499 </v>
    </varray>
   </crystal>
   <varray name="positions" >
    <v>       0.33333300       0.33333300       0.49994347 </v>
    <v>       0.66666700       0.66666700       0.50005653 </v>
    <v>       0.00000000       0.00000000       0.44821600 </v>
    <v>       0.00000000       0.00000000       0.55178400 </v>
    <v>       0.62943372       0.00038471       0.57122610 </v>
    <v>       0.00038471       0.37018257       0.57122610 </v>
    <v>       0.37018257       0.62943372       0.57122610 </v>
    <v>       0.37056628       0.99961529       0.42877390 </v>
    <v>       0.99961529       0.62981743       0.42877390 </v>
    <v>       0.62981743       0.37056628       0.42877390 </v>
   </varray>
  </structure>
  <varray name="forces" >
   <v>       0.00000000       0.00000000      -0.00302300 </v>
   <v>       0.00000000       0.00000000       0.00302300 </v>
   <v>       0.00000000      -0.00000000      -1.00997597 </v>
   <v>       0.00000000       0.00000000       1.00997597 </v>
   <v>      -0.92546664      -0.01189122       0.02599707 </v>
   <v>       0.45243517       0.80742320       0.02599707 </v>
   <v>       0.47303148      -0.79553197       0.02599707 </v>
   <v>       0.92546664       0.01189122      -0.02599707 </v>
   <v>      -0.45243517      -0.80742320      -0.02599707 </v>
   <v>      -0.47303148       0.79553197      -0.02599707 </v>
  </varray>
  <varray name="stress" >
   <v>      10.45326965      -0.00000034       0.00000000 </v>
   <v>      -0.00000101      10.45326866       0.00000000 </v>
   <v>       0.00000000       0.00000000       5.76731330 </v>
  </varray>
  <energy>
   <i name="e_fr_energy">    -35.92574441 </i>
   <i name="e_wo_entrp">    -35.92574441 </i>
   <i name="e_0_energy">      0.00000000 </i>
  </energy>
  <time name="totalsc"> 2147.86 2160.73</time>
 </calculation>
 <calculation>
  <scstep>
   <time name="dav">   26.04   26.14</time>
   <time name="total">   79.74   80.03</time>
   <energy>
    <i name="alphaZ">     53.88505714 </i>
    <i name="ewald">   9621.31028218 </i>
    <i name="hartreedc"> -13128.12265875 </i>
    <i name="XCdc">     37.39622411 </i>
    <i name="pawpsdc">   2600.80080714 </i>
    <i name="pawaedc">  -2620.39242764 </i>
    <i name="eentropy">      0.00000000 </i>
    <i name="bandstr">   -527.70159910 </i>
    <i name="atom">   3925.95288657 </i>
    <i name="e_fr_energy">    -36.87142834 </i>
    <i name="e_wo_entrp">    -36.87142834 </i>
    <i name="e_0_energy">    -36.87142834 </i>
   </energy>
  </scstep>
  <scstep>
   <time name="dav">   24.93   25.12</time>
   <time name="total">   78.44   78.89</time>
   <energy>
    <i name="e_fr_energy">    -41.24033673 </i>
    <i name="e_wo_entrp">    -41.24033673 </i>
    <i name="e_0_energy">    -41.24033673 </i>
   </energy>
  </scstep>
  <scstep>
   <time name="dav">   26.35   26.69</time>
   <time name="total">   79.46   80.41</time>
   <energy>
    <i name="e_fr_energy">    -36.30923981 </i>
    <i name="e_wo_entrp">    -36.30923981 </i>
    <i name="e_0_energy">    -36.30923981 </i>
   </energy>
  </scstep>
  <scstep>
   <time name="dav">   26.51   26.70</time>
   <time name="total">   80.00   80.50</time>
   <energy>
    <i name="e_fr_energy">    -36.00730080 </i>
    <i name="e_wo_entrp">    -36.00730080 </i>
    <i name="e_0_energy">    -36.00730080 </i>
   </energy>
  </scstep>
  <scstep>
   <time name="dav">   27.87   28.14</time>
   <time name="total">   81.56   81.93</time>
   <energy>
    <i name="e_fr_energy">    -36.01748843 </i>
    <i name="e_wo_entrp">    -36.01748843 </i>
    <i name="e_0_energy">    -36.01748843 </i>
   </energy>
  </scstep>
  <scstep>
   <time name="dav">   29.24   29.29</time>
   <time name="total">   82.84   83.07</time>
   <energy>
    <i name="e_fr_energy">    -36.01977651 </i>
    <i name="e_wo_entrp">    -36.01977651 </i>
    <i name="e_0_energy">    -36.01977651 </i>
   </energy>
  </scstep>
  <scstep>
   <time name="dav">   33.77   34.16</time>
   <time name="total">   87.54   88.06</time>
   <energy>
    <i name="e_fr_energy">    -36.01165762 </i>
    <i name="e_wo_entrp">    -36.01165762 </i>
    <i name="e_0_energy">    -36.01165762 </i>
   </energy>
  </scstep>
  <scstep>
   <time name="dav">   29.53   29.88</time>
   <time name="total">   83.16   83.59</time>
   <energy>
    <i name="e_fr_energy">    -36.00849895 </i>
    <i name="e_wo_entrp">    -36.00849895 </i>
    <i name="e_0_energy">    -36.00849895 </i>
   </energy>
  </scstep>
  <scstep>
   <time name="dav">   28.24   28.33</time>
   <time name="total">   82.02   82.22</time>
   <energy>
    <i name="e_fr_energy">    -36.00732375 </i>
    <i name="e_wo_entrp">    -36.00732375 </i>
    <i name="e_0_energy">    -36.00732375 </i>
   </energy>
  </scstep>
  <scstep>
   <time name="dav">   27.24   27.73</time>
   <time name="total">   80.60   81.47</time>
   <energy>
    <i name="e_fr_energy">    -36.00623913 </i>
    <i name="e_wo_entrp">    -36.00623913 </i>
    <i name="e_0_energy">    -36.00623913 </i>
   </energy>
  </scstep>
  <scstep>
   <time name="dav">   21.18   21.38</time>
   <time name="total">   74.52   75.21</time>
   <energy>
    <i name="e_fr_energy">    -36.00572999 </i>
    <i name="e_wo_entrp">    -36.00572999 </i>
    <i name="e_0_energy">    -36.00572999 </i>
   </energy>
  </scstep>
  <scstep>
   <time name="dav">   19.20   19.41</time>
   <time name="total">   72.40   73.28</time>
   <energy>
    <i name="e_fr_energy">    -36.00445882 </i>
    <i name="e_wo_entrp">    -36.00445882 </i>
    <i name="e_0_energy">    -36.00445882 </i>
   </energy>
  </scstep>
  <scstep>
   <time name="dav">   20.03   20.20</time>
   <time name="total">   73.86   74.16</time>
   <energy>
    <i name="e_fr_energy">    -36.00376782 </i>
    <i name="e_wo_entrp">    -36.00376782 </i>
    <i name="e_0_energy">    -36.00376782 </i>
   </energy>
  </scstep>
  <scstep>
   <time name="dav">   19.31   19.40</time>
   <time name="total">   73.02   73.29</time>
   <energy>
    <i name="e_fr_energy">    -36.00366187 </i>
    <i name="e_wo_entrp">    -36.00366187 </i>
    <i name="e_0_energy">    -36.00366187 </i>
   </energy>
  </scstep>
  <scstep>
   <time name="dav">   20.74   20.93</time>
   <time name="total">   74.23   74.70</time>
   <energy>
    <i name="e_fr_energy">    -36.00387161 </i>
    <i name="e_wo_entrp">    -36.00387161 </i>
    <i name="e_0_energy">    -36.00387161 </i>
   </energy>
  </scstep>
  <scstep>
   <time name="dav">   18.91   19.01</time>
   <time name="total">   70.47   70.66</time>
   <energy>
    <i name="alphaZ">     53.88505714 </i>
    <i name="ewald">   9621.31028218 </i>
    <i name="hartreedc"> -13158.04966786 </i>
    <i name="XCdc">     38.49099486 </i>
    <i name="pawpsdc">   2576.54116630 </i>
    <i name="pawaedc">  -2595.61213673 </i>
    <i name="eentropy">      0.00000000 </i>
    <i name="bandstr">   -498.52243439 </i>
    <i name="atom">   3925.95288657 </i>
    <i name="e_fr_energy">    -36.00385193 </i>
    <i name="e_wo_entrp">    -36.00385193 </i>
    <i name="e_0_energy">    -36.00385193 </i>
   </energy>
  </scstep>
  <structure>
   <crystal>
    <varray name="basis" >
     <v>       6.29254113       0.00000009      -0.00000000 </v>
     <v>       3.14627012       5.44950025      -0.00000000 </v>
     <v>      -0.00000000       0.00000000      22.36550695 </v>
    </varray>
    <i name="volume">    766.94016572 </i>
    <varray name="rec_basis" >
     <v>       0.15891831      -0.09175152       0.00000000 </v>
     <v>      -0.00000000       0.18350307      -0.00000000 </v>
     <v>       0.00000000       0.00000000       0.04471171 </v>
    </varray>
   </crystal>
   <varray name="positions" >
    <v>       0.33333300       0.33333300       0.49994101 </v>
    <v>       0.66666700       0.66666700       0.50005899 </v>
    <v>       0.00000000       0.00000000       0.44821600 </v>
    <v>       0.00000000       0.00000000       0.55178400 </v>
    <v>       0.62900194       0.00038966       0.57156215 </v>
    <v>       0.00038966       0.37060940       0.57156215 </v>
    <v>       0.37060940       0.62900194       0.57156215 </v>
    <v>       0.37099806       0.99961034       0.42843785 </v>
    <v>       0.99961034       0.62939060       0.42843785 </v>
    <v>       0.62939060       0.37099806       0.42843785 </v>
   </varray>
  </structure>
  <varray name="forces" >
   <v>       0.00000000       0.00000000       0.00119248 </v>
   <v>       0.00000000      -0.00000000      -0.00119248 </v>
   <v>       0.00000000      -0.00000000      -0.98443250 </v>
   <v>       0.00000000       0.00000000       0.98443250 </v>
   <v>      -0.64499601      -0.00409631      -0.21395743 </v>
   <v>       0.31895046       0.56063105      -0.21395743 </v>
   <v>       0.32604555      -0.55653474      -0.21395743 </v>
   <v>       0.64499601       0.00409631       0.21395743 </v>
   <v>      -0.31895046      -0.56063105       0.21395743 </v>
   <v>      -0.32604555       0.55653474       0.21395743 </v>
  </varray>
  <varray name="stress" >
   <v>      -0.15147510       0.00000117       0.00000000 </v>
   <v>      -0.00000115      -0.15147508      -0.00000000 </v>
   <v>       0.00000000       0.00000000       0.63908518 </v>
  </varray>
  <energy>
   <i name="e_fr_energy">    -36.00385193 </i>
   <i name="e_wo_entrp">    -36.00385193 </i>
   <i name="e_0_energy">      0.00000000 </i>
  </energy>
  <time name="totalsc"> 1388.08 1396.52</time>
 </calculation>
 <calculation>
  <scstep>
   <time name="dav">   24.19   24.34</time>
   <time name="total">   78.10   78.34</time>
   <energy>
    <i name="alphaZ">     54.19992459 </i>
    <i name="ewald">   9733.19625528 </i>
    <i name="hartreedc"> -13274.77270225 </i>
    <i name="XCdc">     38.80749512 </i>
    <i name="pawpsdc">   2576.50549166 </i>
    <i name="pawaedc">  -2595.57907549 </i>
    <i name="eentropy">      0.00000000 </i>
    <i name="bandstr">   -494.41496532 </i>
    <i name="atom">   3925.95288657 </i>
    <i name="e_fr_energy">    -36.10468985 </i>
    <i name="e_wo_entrp">    -36.10468985 </i>
    <i name="e_0_energy">    -36.10468985 </i>
   </energy>
  </scstep>
  <scstep>
   <time name="dav">   30.04   30.16</time>
   <time name="total">   83.64   83.99</time>
   <energy>
    <i name="e_fr_energy">    -36.21629252 </i>
    <i name="e_wo_entrp">    -36.21629252 </i>
    <i name="e_0_energy">    -36.21629252 </i>
   </energy>
  </scstep>
  <scstep>
   <time name="dav">   26.00   26.18</time>
   <time name="total">   79.63   79.97</time>
   <energy>
    <i name="e_fr_energy">    -36.11437465 </i>
    <i name="e_wo_entrp">    -36.11437465 </i>
    <i name="e_0_energy">    -36.11437465 </i>
   </energy>
  </scstep>
  <scstep>
   <time name="dav">   25.02   25.06</time>
   <time name="total">   78.80   79.11</time>
   <energy>
    <i name="e_fr_energy">    -36.11336224 </i>
    <i name="e_wo_entrp">    -36.11336224 </i>
    <i name="e_0_energy">    -36.11336224 </i>
   </energy>
  </scstep>
  <scstep>
   <time name="dav">   24.68   24.79</time>
   <time name="total">   78.26   78.52</time>
   <energy>
    <i name="e_fr_energy">    -36.11237909 </i>
    <i name="e_wo_entrp">    -36.11237909 </i>
    <i name="e_0_energy">    -36.11237909 </i>
   </energy>
  </scstep>
  <scstep>
   <time name="dav">   23.85   23.91</time>
   <time name="total">   77.39   77.81</time>
   <energy>
    <i name="e_fr_energy">    -36.11275567 </i>
    <i name="e_wo_entrp">    -36.11275567 </i>
    <i name="e_0_energy">    -36.11275567 </i>
   </energy>
  </scstep>
  <scstep>
   <time name="dav">   19.16   19.34</time>
   <time name="total">   70.79   71.01</time>
   <energy>
    <i name="alphaZ">     54.19992459 </i>
    <i name="ewald">   9733.19625528 </i>
    <i name="hartreedc"> -13271.05617521 </i>
    <i name="XCdc">     38.57998829 </i>
    <i name="pawpsdc">   2582.88077412 </i>
    <i name="pawaedc">  -2602.09982306 </i>
    <i name="eentropy">      0.00000000 </i>
    <i name="bandstr">   -497.76668068 </i>
    <i name="atom">   3925.95288657 </i>
    <i name="e_fr_energy">    -36.11285010 </i>
    <i name="e_wo_entrp">    -36.11285010 </i>
    <i name="e_0_energy">    -36.11285010 </i>
   </energy>
  </scstep>
  <structure>
   <crystal>
    <varray name="basis" >
     <v>       6.27395834       0.00000011      -0.00000000 </v>
     <v>       3.13697871       5.43340709      -0.00000000 </v>
     <v>      -0.00000000       0.00000000      22.36749129 </v>
    </varray>
    <i name="volume">    762.48472616 </i>
    <varray name="rec_basis" >
     <v>       0.15938901      -0.09202328       0.00000000 </v>
     <v>      -0.00000000       0.18404658      -0.00000000 </v>
     <v>       0.00000000       0.00000000       0.04470774 </v>
    </varray>
   </crystal>
   <varray name="positions" >
    <v>       0.33333300       0.33333300       0.49994401 </v>
    <v>       0.66666700       0.66666700       0.50005599 </v>
    <v>       0.00000000       0.00000000       0.44821600 </v>
    <v>       0.00000000       0.00000000       0.55178400 </v>
    <v>       0.62428589       0.00035332       0.57104441 </v>
    <v>       0.00035332       0.37536179       0.57104441 </v>
    <v>       0.37536179       0.62428589       0.57104441 </v>
    <v>       0.37571411       0.99964668       0.42895559 </v>
    <v>       0.99964668       0.62463821       0.42895559 </v>
    <v>       0.62463821       0.37571411       0.42895559 </v>
   </varray>
  </structure>
  <varray name="forces" >
   <v>       0.00000000      -0.00000000       0.00028099 </v>
   <v>      -0.00000000      -0.00000000      -0.00028099 </v>
   <v>       0.00000000      -0.00000000      -1.09976319 </v>
   <v>      -0.00000000      -0.00000000       1.09976319 </v>
   <v>      -0.38014792      -0.00885760      -0.17082352 </v>
   <v>       0.18240303       0.33364654      -0.17082352 </v>
   <v>       0.19774489      -0.32478894      -0.17082352 </v>
   <v>       0.38014792       0.00885760       0.17082352 </v>
   <v>      -0.18240303      -0.33364654       0.17082352 </v>
   <v>      -0.19774489       0.32478894       0.17082352 </v>
  </varray>
  <varray name="stress" >
   <v>      -0.38510182      -0.00000520       0.00000000 </v>
   <v>       0.00000525      -0.38510178       0.00000000 </v>
   <v>       0.00000000      -0.00000000       1.87944554 </v>
  </varray>
  <energy>
   <i name="e_fr_energy">    -36.11285010 </i>
   <i name="e_wo_entrp">    -36.11285010 </i>
   <i name="e_0_energy">      0.00000000 </i>
  </energy>
  <time name="totalsc">  681.20  683.81</time>
 </calculation>
 <calculation>
  <scstep>
   <time name="dav">   23.14   23.19</time>
   <time name="total">   76.85   76.98</time>
   <energy>
    <i name="alphaZ">     54.49651129 </i>
    <i name="ewald">   9839.15744634 </i>
    <i name="hartreedc"> -13381.18285532 </i>
    <i name="XCdc">     38.88491722 </i>
    <i name="pawpsdc">   2583.07247206 </i>
    <i name="pawaedc">  -2602.29809837 </i>
    <i name="eentropy">      0.00000000 </i>
    <i name="bandstr">   -494.24731715 </i>
    <i name="atom">   3925.95288657 </i>
    <i name="e_fr_energy">    -36.16403735 </i>
    <i name="e_wo_entrp">    -36.16403735 </i>
    <i name="e_0_energy">    -36.16403735 </i>
   </energy>
  </scstep>
  <scstep>
   <time name="dav">   27.25   27.30</time>
   <time name="total">   80.67   81.04</time>
   <energy>
    <i name="e_fr_energy">    -36.26430307 </i>
    <i name="e_wo_entrp">    -36.26430307 </i>
    <i name="e_0_energy">    -36.26430307 </i>
   </energy>
  </scstep>
  <scstep>
   <time name="dav">   24.02   24.15</time>
   <time name="total">   78.30   78.45</time>
   <energy>
    <i name="e_fr_energy">    -36.17303078 </i>
    <i name="e_wo_entrp">    -36.17303078 </i>
    <i name="e_0_energy">    -36.17303078 </i>
   </energy>
  </scstep>
  <scstep>
   <time name="dav">   25.10   25.11</time>
   <time name="total">   78.81   78.90</time>
   <energy>
    <i name="e_fr_energy">    -36.17296846 </i>
    <i name="e_wo_entrp">    -36.17296846 </i>
    <i name="e_0_energy">    -36.17296846 </i>
   </energy>
  </scstep>
  <scstep>
   <time name="dav">   24.00   24.06</time>
   <time name="total">   77.68   77.80</time>
   <energy>
    <i name="e_fr_energy">    -36.17269321 </i>
    <i name="e_wo_entrp">    -36.17269321 </i>
    <i name="e_0_energy">    -36.17269321 </i>
   </energy>
  </scstep>
  <scstep>
   <time name="dav">   23.47   23.74</time>
   <time name="total">   77.06   77.80</time>
   <energy>
    <i name="e_fr_energy">    -36.17287754 </i>
    <i name="e_wo_entrp">    -36.17287754 </i>
    <i name="e_0_energy">    -36.17287754 </i>
   </energy>
  </scstep>
  <scstep>
   <time name="dav">   19.12   19.21</time>
   <time name="total">   72.72   73.29</time>
   <energy>
    <i name="e_fr_energy">    -36.17301823 </i>
    <i name="e_wo_entrp">    -36.17301823 </i>
    <i name="e_0_energy">    -36.17301823 </i>
   </energy>
  </scstep>
  <scstep>
   <time name="dav">   20.02   20.14</time>
   <time name="total">   71.56   71.87</time>
   <energy>
    <i name="alphaZ">     54.49651129 </i>
    <i name="ewald">   9839.15744634 </i>
    <i name="hartreedc"> -13377.84410405 </i>
    <i name="XCdc">     38.66606894 </i>
    <i name="pawpsdc">   2590.25660674 </i>
    <i name="pawaedc">  -2609.62590494 </i>
    <i name="eentropy">      0.00000000 </i>
    <i name="bandstr">   -497.23257383 </i>
    <i name="atom">   3925.95288657 </i>
    <i name="e_fr_energy">    -36.17306294 </i>
    <i name="e_wo_entrp">    -36.17306294 </i>
    <i name="e_0_energy">    -36.17306294 </i>
   </energy>
  </scstep>
  <structure>
   <crystal>
    <varray name="basis" >
     <v>       6.25660346       0.00000012      -0.00000000 </v>
     <v>       3.12830126       5.41837734      -0.00000000 </v>
     <v>      -0.00000000       0.00000000      22.36934451 </v>
    </varray>
    <i name="volume">    758.33505081 </i>
    <varray name="rec_basis" >
     <v>       0.15983113      -0.09227854       0.00000000 </v>
     <v>      -0.00000000       0.18455710      -0.00000000 </v>
     <v>       0.00000000       0.00000000       0.04470404 </v>
    </varray>
   </crystal>
   <varray name="positions" >
    <v>       0.33333300       0.33333300       0.49994682 </v>
    <v>       0.66666700       0.66666700       0.50005318 </v>
    <v>       0.00000000       0.00000000       0.44821600 </v>
    <v>       0.00000000       0.00000000       0.55178400 </v>
    <v>       0.61986841       0.00031928       0.57056092 </v>
    <v>       0.00031928       0.37981331       0.57056092 </v>
    <v>       0.37981331       0.61986841       0.57056092 </v>
    <v>       0.38013159       0.99968072       0.42943908 </v>
    <v>       0.99968072       0.62018669       0.42943908 </v>
    <v>       0.62018669       0.38013159       0.42943908 </v>
   </varray>
  </structure>
  <varray name="forces" >
   <v>      -0.00000000      -0.00000000       0.00002396 </v>
   <v>      -0.00000000      -0.00000000      -0.00002396 </v>
   <v>      -0.00000000      -0.00000000      -1.21164065 </v>
   <v>      -0.00000000      -0.00000000       1.21164065 </v>
   <v>      -0.14827878      -0.00577732      -0.13719143 </v>
   <v>       0.06913607       0.13130184      -0.13719143 </v>
   <v>       0.07914270      -0.12552452      -0.13719143 </v>
   <v>       0.14827878       0.00577732       0.13719143 </v>
   <v>      -0.06913607      -0.13130184       0.13719143 </v>
   <v>      -0.07914270       0.12552452       0.13719143 </v>
  </varray>
  <varray name="stress" >
   <v>      -0.14815331      -0.00000333      -0.00000000 </v>
   <v>       0.00000335      -0.14815330       0.00000000 </v>
   <v>       0.00000000      -0.00000000       3.33130612 </v>
  </varray>
  <energy>
   <i name="e_fr_energy">    -36.17306294 </i>
   <i name="e_wo_entrp">    -36.17306294 </i>
   <i name="e_0_energy">      0.00000000 </i>
  </energy>
  <time name="totalsc">  748.60  751.73</time>
 </calculation>
 <calculation>
  <scstep>
   <time name="dav">   23.04   23.05</time>
   <time name="total">   76.94   76.99</time>
   <energy>
    <i name="alphaZ">     55.09711181 </i>
    <i name="ewald">  10055.24454354 </i>
    <i name="hartreedc"> -13601.83733324 </i>
    <i name="XCdc">     39.30316692 </i>
    <i name="pawpsdc">   2590.35918635 </i>
    <i name="pawaedc">  -2609.71936056 </i>
    <i name="eentropy">      0.00000000 </i>
    <i name="bandstr">   -490.56648062 </i>
    <i name="atom">   3925.95288657 </i>
    <i name="e_fr_energy">    -36.16627923 </i>
    <i name="e_wo_entrp">    -36.16627923 </i>
    <i name="e_0_energy">    -36.16627923 </i>
   </energy>
  </scstep>
  <scstep>
   <time name="dav">   32.26   32.45</time>
   <time name="total">   86.46   86.92</time>
   <energy>
    <i name="e_fr_energy">    -36.50927761 </i>
    <i name="e_wo_entrp">    -36.50927761 </i>
    <i name="e_0_energy">    -36.50927761 </i>
   </energy>
  </scstep>
  <scstep>
   <time name="dav">   25.36   25.44</time>
   <time name="total">   78.97   79.25</time>
   <energy>
    <i name="e_fr_energy">    -36.19876780 </i>
    <i name="e_wo_entrp">    -36.19876780 </i>
    <i name="e_0_energy">    -36.19876780 </i>
   </energy>
  </scstep>
  <scstep>
   <time name="dav">   25.37   25.39</time>
   <time name="total">   79.41   79.50</time>
   <energy>
    <i name="e_fr_energy">    -36.19624395 </i>
    <i name="e_wo_entrp">    -36.19624395 </i>
    <i name="e_0_energy">    -36.19624395 </i>
   </energy>
  </scstep>
  <scstep>
   <time name="dav">   26.68   26.93</time>
   <time name="total">   80.92   81.26</time>
   <energy>
    <i name="e_fr_energy">    -36.19943710 </i>
    <i name="e_wo_entrp">    -36.19943710 </i>
    <i name="e_0_energy">    -36.19943710 </i>
   </energy>
  </scstep>
  <scstep>
   <time name="dav">   23.18   23.52</time>
   <time name="total">   77.03   77.72</time>
   <energy>
    <i name="e_fr_energy">    -36.20096848 </i>
    <i name="e_wo_entrp">    -36.20096848 </i>
    <i name="e_0_energy">    -36.20096848 </i>
   </energy>
  </scstep>
  <scstep>
   <time name="dav">   23.62   23.79</time>
   <time name="total">   77.46   77.70</time>
   <energy>
    <i name="e_fr_energy">    -36.19425080 </i>
    <i name="e_wo_entrp">    -36.19425080 </i>
    <i name="e_0_energy">    -36.19425080 </i>
   </energy>
  </scstep>
  <scstep>
   <time name="dav">   27.89   28.04</time>
   <time name="total">   81.52   81.92</time>
   <energy>
    <i name="e_fr_energy">    -36.18709786 </i>
    <i name="e_wo_entrp">    -36.18709786 </i>
    <i name="e_0_energy">    -36.18709786 </i>
   </energy>
  </scstep>
  <scstep>
   <time name="dav">   27.78   28.06</time>
   <time name="total">   81.81   82.26</time>
   <energy>
    <i name="e_fr_energy">    -36.16439725 </i>
    <i name="e_wo_entrp">    -36.16439725 </i>
    <i name="e_0_energy">    -36.16439725 </i>
   </energy>
  </scstep>
  <scstep>
   <time name="dav">   25.15   25.39</time>
   <time name="total">   78.96   79.54</time>
   <energy>
    <i name="e_fr_energy">    -36.18839417 </i>
    <i name="e_wo_entrp">    -36.18839417 </i>
    <i name="e_0_energy">    -36.18839417 </i>
   </energy>
  </scstep>
  <scstep>
   <time name="dav">   29.24   29.86</time>
   <time name="total">   83.41   84.20</time>
   <energy>
    <i name="e_fr_energy">    -36.19765535 </i>
    <i name="e_wo_entrp">    -36.19765535 </i>
    <i name="e_0_energy">    -36.19765535 </i>
   </energy>
  </scstep>
  <scstep>
   <time name="dav">   29.86   30.21</time>
   <time name="total">   83.63   84.08</time>
   <energy>
    <i name="e_fr_energy">    -36.20540734 </i>
    <i name="e_wo_entrp">    -36.20540734 </i>
    <i name="e_0_energy">    -36.20540734 </i>
   </energy>
  </scstep>
  <scstep>
   <time name="dav">   25.93   26.06</time>
   <time name="total">   79.83   80.10</time>
   <energy>
    <i name="e_fr_energy">    -36.20939177 </i>
    <i name="e_wo_entrp">    -36.20939177 </i>
    <i name="e_0_energy">    -36.20939177 </i>
   </energy>
  </scstep>
  <scstep>
   <time name="dav">   25.71   25.80</time>
   <time name="total">   79.43   79.72</time>
   <energy>
    <i name="e_fr_energy">    -36.20760288 </i>
    <i name="e_wo_entrp">    -36.20760288 </i>
    <i name="e_0_energy">    -36.20760288 </i>
   </energy>
  </scstep>
  <scstep>
   <time name="dav">   24.44   24.61</time>
   <time name="total">   78.06   78.55</time>
   <energy>
    <i name="e_fr_energy">    -36.21021096 </i>
    <i name="e_wo_entrp">    -36.21021096 </i>
    <i name="e_0_energy">    -36.21021096 </i>
   </energy>
  </scstep>
  <scstep>
   <time name="dav">   24.21   24.49</time>
   <time name="total">   78.31   78.80</time>
   <energy>
    <i name="e_fr_energy">    -36.20374461 </i>
    <i name="e_wo_entrp">    -36.20374461 </i>
    <i name="e_0_energy">    -36.20374461 </i>
   </energy>
  </scstep>
  <scstep>
   <time name="dav">   29.64   29.74</time>
   <time name="total">   83.97   84.15</time>
   <energy>
    <i name="e_fr_energy">    -36.20291302 </i>
    <i name="e_wo_entrp">    -36.20291302 </i>
    <i name="e_0_energy">    -36.20291302 </i>
   </energy>
  </scstep>
  <scstep>
   <time name="dav">   23.69   23.72</time>
   <time name="total">   77.34   77.44</time>
   <energy>
    <i name="e_fr_energy">    -36.20328141 </i>
    <i name="e_wo_entrp">    -36.20328141 </i>
    <i name="e_0_energy">    -36.20328141 </i>
   </energy>
  </scstep>
  <scstep>
   <time name="dav">   23.76   23.77</time>
   <time name="total">   77.69   77.81</time>
   <energy>
    <i name="e_fr_energy">    -36.20455292 </i>
    <i name="e_wo_entrp">    -36.20455292 </i>
    <i name="e_0_energy">    -36.20455292 </i>
   </energy>
  </scstep>
  <scstep>
   <time name="dav">   22.08   22.37</time>
   <time name="total">   76.38   76.71</time>
   <energy>
    <i name="e_fr_energy">    -36.20494723 </i>
    <i name="e_wo_entrp">    -36.20494723 </i>
    <i name="e_0_energy">    -36.20494723 </i>
   </energy>
  </scstep>
  <scstep>
   <time name="dav">   23.66   23.84</time>
   <time name="total">   78.24   78.74</time>
   <energy>
    <i name="e_fr_energy">    -36.20316982 </i>
    <i name="e_wo_entrp">    -36.20316982 </i>
    <i name="e_0_energy">    -36.20316982 </i>
   </energy>
  </scstep>
  <scstep>
   <time name="dav">   22.89   22.97</time>
   <time name="total">   76.66   76.94</time>
   <energy>
    <i name="e_fr_energy">    -36.20194144 </i>
    <i name="e_wo_entrp">    -36.20194144 </i>
    <i name="e_0_energy">    -36.20194144 </i>
   </energy>
  </scstep>
  <scstep>
   <time name="dav">   21.00   21.02</time>
   <time name="total">   74.80   74.91</time>
   <energy>
    <i name="e_fr_energy">    -36.20304971 </i>
    <i name="e_wo_entrp">    -36.20304971 </i>
    <i name="e_0_energy">    -36.20304971 </i>
   </energy>
  </scstep>
  <scstep>
   <time name="dav">   19.24   19.59</time>
   <time name="total">   73.36   73.74</time>
   <energy>
    <i name="e_fr_energy">    -36.20252088 </i>
    <i name="e_wo_entrp">    -36.20252088 </i>
    <i name="e_0_energy">    -36.20252088 </i>
   </energy>
  </scstep>
  <scstep>
   <time name="dav">   18.53   18.64</time>
   <time name="total">   72.70   72.85</time>
   <energy>
    <i name="e_fr_energy">    -36.20295172 </i>
    <i name="e_wo_entrp">    -36.20295172 </i>
    <i name="e_0_energy">    -36.20295172 </i>
   </energy>
  </scstep>
  <scstep>
   <time name="dav">   18.64   18.70</time>
   <time name="total">   70.42   70.70</time>
   <energy>
    <i name="alphaZ">     55.09711181 </i>
    <i name="ewald">  10055.24454354 </i>
    <i name="hartreedc"> -13595.62957234 </i>
    <i name="XCdc">     38.76876327 </i>
    <i name="pawpsdc">   2608.84623049 </i>
    <i name="pawaedc">  -2628.36945112 </i>
    <i name="eentropy">      0.00000000 </i>
    <i name="bandstr">   -496.11351972 </i>
    <i name="atom">   3925.95288657 </i>
    <i name="e_fr_energy">    -36.20300749 </i>
    <i name="e_wo_entrp">    -36.20300749 </i>
    <i name="e_0_energy">    -36.20300749 </i>
   </energy>
  </scstep>
  <structure>
   <crystal>
    <varray name="basis" >
     <v>       6.22189370       0.00000016      -0.00000000 </v>
     <v>       3.11094636       5.38831783      -0.00000000 </v>
     <v>      -0.00000000       0.00000000      22.37305094 </v>
    </varray>
    <i name="volume">    750.06862068 </i>
    <varray name="rec_basis" >
     <v>       0.16072277      -0.09279333       0.00000000 </v>
     <v>      -0.00000000       0.18558668      -0.00000000 </v>
     <v>       0.00000000       0.00000000       0.04469663 </v>
    </varray>
   </crystal>
   <varray name="positions" >
    <v>       0.33333300       0.33333300       0.49995243 </v>
    <v>       0.66666700       0.66666700       0.50004757 </v>
    <v>       0.00000000       0.00000000       0.44821600 </v>
    <v>       0.00000000       0.00000000       0.55178400 </v>
    <v>       0.61100896       0.00025101       0.56959402 </v>
    <v>       0.00025101       0.38874103       0.56959402 </v>
    <v>       0.38874103       0.61100896       0.56959402 </v>
    <v>       0.38899104       0.99974899       0.43040598 </v>
    <v>       0.99974899       0.61125897       0.43040598 </v>
    <v>       0.61125897       0.38899104       0.43040598 </v>
   </varray>
  </structure>
  <varray name="forces" >
   <v>       0.00000000      -0.00000000      -0.00019905 </v>
   <v>       0.00000000       0.00000000       0.00019905 </v>
   <v>       0.00000000      -0.00000000      -1.66533316 </v>
   <v>       0.00000000       0.00000000       1.66533316 </v>
   <v>       0.14793392      -0.00193821      -0.14497622 </v>
   <v>      -0.07564549      -0.12714542      -0.14497622 </v>
   <v>      -0.07228843       0.12908363      -0.14497622 </v>
   <v>      -0.14793392       0.00193821       0.14497622 </v>
   <v>       0.07564549       0.12714542       0.14497622 </v>
   <v>       0.07228843      -0.12908363       0.14497622 </v>
  </varray>
  <varray name="stress" >
   <v>       0.02613535       0.00000491       0.00000000 </v>
   <v>      -0.00000491       0.02613535       0.00000000 </v>
   <v>      -0.00000000      -0.00000000       2.97569690 </v>
  </varray>
  <energy>
   <i name="e_fr_energy">    -36.20300749 </i>
   <i name="e_wo_entrp">    -36.20300749 </i>
   <i name="e_0_energy">      0.00000000 </i>
  </energy>
  <time name="totalsc"> 2179.58 2188.81</time>
 </calculation>
 <calculation>
  <scstep>
   <time name="dav">   23.76   23.80</time>
   <time name="total">   77.74   77.87</time>
   <energy>
    <i name="alphaZ">     54.91084751 </i>
    <i name="ewald">   9988.01584680 </i>
    <i name="hartreedc"> -13526.00260363 </i>
    <i name="XCdc">     38.56408780 </i>
    <i name="pawpsdc">   2608.82802499 </i>
    <i name="pawaedc">  -2628.35475531 </i>
    <i name="eentropy">      0.00000000 </i>
    <i name="bandstr">   -498.12710542 </i>
    <i name="atom">   3925.95288657 </i>
    <i name="e_fr_energy">    -36.21277069 </i>
    <i name="e_wo_entrp">    -36.21277069 </i>
    <i name="e_0_energy">    -36.21277069 </i>
   </energy>
  </scstep>
  <scstep>
   <time name="dav">   29.65   29.83</time>
   <time name="total">   84.04   84.29</time>
   <energy>
    <i name="e_fr_energy">    -36.24690576 </i>
    <i name="e_wo_entrp">    -36.24690576 </i>
    <i name="e_0_energy">    -36.24690576 </i>
   </energy>
  </scstep>
  <scstep>
   <time name="dav">   24.46   24.52</time>
   <time name="total">   78.30   78.43</time>
   <energy>
    <i name="e_fr_energy">    -36.21238038 </i>
    <i name="e_wo_entrp">    -36.21238038 </i>
    <i name="e_0_energy">    -36.21238038 </i>
   </energy>
  </scstep>
  <scstep>
   <time name="dav">   26.65   26.72</time>
   <time name="total">   80.63   80.73</time>
   <energy>
    <i name="e_fr_energy">    -36.21126493 </i>
    <i name="e_wo_entrp">    -36.21126493 </i>
    <i name="e_0_energy">    -36.21126493 </i>
   </energy>
  </scstep>
  <scstep>
   <time name="dav">   29.28   29.57</time>
   <time name="total">   83.10   83.61</time>
   <energy>
    <i name="e_fr_energy">    -36.21078788 </i>
    <i name="e_wo_entrp">    -36.21078788 </i>
    <i name="e_0_energy">    -36.21078788 </i>
   </energy>
  </scstep>
  <scstep>
   <time name="dav">   19.99   20.06</time>
   <time name="total">   74.42   74.68</time>
   <energy>
    <i name="e_fr_energy">    -36.21058793 </i>
    <i name="e_wo_entrp">    -36.21058793 </i>
    <i name="e_0_energy">    -36.21058793 </i>
   </energy>
  </scstep>
  <scstep>
   <time name="dav">   17.90   17.93</time>
   <time name="total">   69.54   69.60</time>
   <energy>
    <i name="alphaZ">     54.91084751 </i>
    <i name="ewald">   9988.01584680 </i>
    <i name="hartreedc"> -13528.53566456 </i>
    <i name="XCdc">     38.68077487 </i>
    <i name="pawpsdc">   2603.78444296 </i>
    <i name="pawaedc">  -2623.16641274 </i>
    <i name="eentropy">      0.00000000 </i>
    <i name="bandstr">   -495.85332760 </i>
    <i name="atom">   3925.95288657 </i>
    <i name="e_fr_energy">    -36.21060620 </i>
    <i name="e_wo_entrp">    -36.21060620 </i>
    <i name="e_0_energy">    -36.21060620 </i>
   </energy>
  </scstep>
  <structure>
   <crystal>
    <varray name="basis" >
     <v>       6.23259668       0.00000015      -0.00000000 </v>
     <v>       3.11629786       5.39758687      -0.00000000 </v>
     <v>      -0.00000000       0.00000000      22.37190804 </v>
    </varray>
    <i name="volume">    752.61294499 </i>
    <varray name="rec_basis" >
     <v>       0.16044677      -0.09263398       0.00000000 </v>
     <v>      -0.00000000       0.18526798      -0.00000000 </v>
     <v>       0.00000000       0.00000000       0.04469891 </v>
    </varray>
   </crystal>
   <varray name="positions" >
    <v>       0.33333300       0.33333300       0.49995070 </v>
    <v>       0.66666700       0.66666700       0.50004930 </v>
    <v>       0.00000000       0.00000000       0.44821600 </v>
    <v>       0.00000000       0.00000000       0.55178400 </v>
    <v>       0.61375607       0.00027218       0.56989212 </v>
    <v>       0.00027218       0.38597275       0.56989212 </v>
    <v>       0.38597275       0.61375607       0.56989212 </v>
    <v>       0.38624393       0.99972782       0.43010788 </v>
    <v>       0.99972782       0.61402725       0.43010788 </v>
    <v>       0.61402725       0.38624393       0.43010788 </v>
   </varray>
  </structure>
  <varray name="forces" >
   <v>       0.00000000       0.00000000       0.00025626 </v>
   <v>       0.00000000       0.00000000      -0.00025626 </v>
   <v>       0.00000000      -0.00000000      -1.59688834 </v>
   <v>       0.00000000       0.00000000       1.59688834 </v>
   <v>       0.03813794      -0.00752305      -0.19400177 </v>
   <v>      -0.02558412      -0.02926690      -0.19400177 </v>
   <v>      -0.01255382       0.03678995      -0.19400177 </v>
   <v>      -0.03813794       0.00752305       0.19400177 </v>
   <v>       0.02558412       0.02926690       0.19400177 </v>
   <v>       0.01255382      -0.03678995       0.19400177 </v>
  </varray>
  <varray name="stress" >
   <v>       1.90375127       0.00000463       0.00000000 </v>
   <v>      -0.00000488       1.90375109       0.00000000 </v>
   <v>       0.00000000      -0.00000000       3.87198582 </v>
  </varray>
  <energy>
   <i name="e_fr_energy">    -36.21060620 </i>
   <i name="e_wo_entrp">    -36.21060620 </i>
   <i name="e_0_energy">      0.00000000 </i>
  </energy>
  <time name="totalsc">  683.29  685.17</time>
 </calculation>
 <calculation>
  <scstep>
   <time name="dav">   28.24   28.42</time>
   <time name="total">   82.36   82.61</time>
   <energy>
    <i name="alphaZ">     53.68077276 </i>
    <i name="ewald">  10092.60639831 </i>
    <i name="hartreedc"> -13599.45473242 </i>
    <i name="XCdc">     37.67223755 </i>
    <i name="pawpsdc">   2603.56836242 </i>
    <i name="pawaedc">  -2622.94682706 </i>
    <i name="eentropy">      0.00000000 </i>
    <i name="bandstr">   -527.70656767 </i>
    <i name="atom">   3925.95288657 </i>
    <i name="e_fr_energy">    -36.62746955 </i>
    <i name="e_wo_entrp">    -36.62746955 </i>
    <i name="e_0_energy">    -36.62746955 </i>
   </energy>
  </scstep>
  <scstep>
   <time name="dav">   27.73   27.76</time>
   <time name="total">   81.56   81.73</time>
   <energy>
    <i name="e_fr_energy">    -38.81649110 </i>
    <i name="e_wo_entrp">    -38.81649110 </i>
    <i name="e_0_energy">    -38.81649110 </i>
   </energy>
  </scstep>
  <scstep>
   <time name="dav">   23.29   23.41</time>
   <time name="total">   77.56   77.70</time>
   <energy>
    <i name="e_fr_energy">    -36.39749828 </i>
    <i name="e_wo_entrp">    -36.39749828 </i>
    <i name="e_0_energy">    -36.39749828 </i>
   </energy>
  </scstep>
  <scstep>
   <time name="dav">   26.68   26.80</time>
   <time name="total">   80.93   81.35</time>
   <energy>
    <i name="e_fr_energy">    -36.25640393 </i>
    <i name="e_wo_entrp">    -36.25640393 </i>
    <i name="e_0_energy">    -36.25640393 </i>
   </energy>
  </scstep>
  <scstep>
   <time name="dav">   28.20   28.29</time>
   <time name="total">   82.46   82.63</time>
   <energy>
    <i name="e_fr_energy">    -36.25145420 </i>
    <i name="e_wo_entrp">    -36.25145420 </i>
    <i name="e_0_energy">    -36.25145420 </i>
   </energy>
  </scstep>
  <scstep>
   <time name="dav">   34.22   34.29</time>
   <time name="total">   88.59   88.78</time>
   <energy>
    <i name="e_fr_energy">    -36.24893479 </i>
    <i name="e_wo_entrp">    -36.24893479 </i>
    <i name="e_0_energy">    -36.24893479 </i>
   </energy>
  </scstep>
  <scstep>
   <time name="dav">   26.83   26.88</time>
   <time name="total">   80.51   80.77</time>
   <energy>
    <i name="e_fr_energy">    -36.24874072 </i>
    <i name="e_wo_entrp">    -36.24874072 </i>
    <i name="e_0_energy">    -36.24874072 </i>
   </energy>
  </scstep>
  <scstep>
   <time name="dav">   24.98   25.17</time>
   <time name="total">   78.81   79.10</time>
   <energy>
    <i name="e_fr_energy">    -36.24842751 </i>
    <i name="e_wo_entrp">    -36.24842751 </i>
    <i name="e_0_energy">    -36.24842751 </i>
   </energy>
  </scstep>
  <scstep>
   <time name="dav">   23.46   23.49</time>
   <time name="total">   77.52   77.63</time>
   <energy>
    <i name="e_fr_energy">    -36.24864473 </i>
    <i name="e_wo_entrp">    -36.24864473 </i>
    <i name="e_0_energy">    -36.24864473 </i>
   </energy>
  </scstep>
  <scstep>
   <time name="dav">   23.72   23.81</time>
   <time name="total">   75.25   75.40</time>
   <energy>
    <i name="alphaZ">     53.68077276 </i>
    <i name="ewald">  10092.60639831 </i>
    <i name="hartreedc"> -13625.71127225 </i>
    <i name="XCdc">     38.36841904 </i>
    <i name="pawpsdc">   2595.38621360 </i>
    <i name="pawaedc">  -2614.57665603 </i>
    <i name="eentropy">      0.00000000 </i>
    <i name="bandstr">   -501.95549988 </i>
    <i name="atom">   3925.95288657 </i>
    <i name="e_fr_energy">    -36.24873789 </i>
    <i name="e_wo_entrp">    -36.24873789 </i>
    <i name="e_0_energy">    -36.24873789 </i>
   </energy>
  </scstep>
  <structure>
   <crystal>
    <varray name="basis" >
     <v>       6.26491613       0.00000025      -0.00000000 </v>
     <v>       3.13245749       5.42557638      -0.00000000 </v>
     <v>      -0.00000000       0.00000000      22.64904731 </v>
    </varray>
    <i name="volume">    769.85878801 </i>
    <varray name="rec_basis" >
     <v>       0.15961906      -0.09215609       0.00000000 </v>
     <v>      -0.00000001       0.18431222      -0.00000000 </v>
     <v>       0.00000000       0.00000000       0.04415197 </v>
    </varray>
   </crystal>
   <varray name="positions" >
    <v>       0.33333300       0.33333300       0.49995238 </v>
    <v>       0.66666700       0.66666700       0.50004762 </v>
    <v>       0.00000000       0.00000000       0.44821600 </v>
    <v>       0.00000000       0.00000000       0.55178400 </v>
    <v>       0.61278105       0.00016637       0.56914644 </v>
    <v>       0.00016637       0.38705358       0.56914644 </v>
    <v>       0.38705358       0.61278105       0.56914644 </v>
    <v>       0.38721895       0.99983363       0.43085356 </v>
    <v>       0.99983363       0.61294642       0.43085356 </v>
    <v>       0.61294642       0.38721895       0.43085356 </v>
   </varray>
  </structure>
  <varray name="forces" >
   <v>       0.00000000       0.00000000       0.00305911 </v>
   <v>       0.00000000       0.00000000      -0.00305911 </v>
   <v>       0.00000000      -0.00000000      -1.28543801 </v>
   <v>       0.00000000       0.00000000       1.28543801 </v>
   <v>       0.10138481      -0.00273096      -0.27305583 </v>
   <v>      -0.05305748      -0.08643633      -0.27305583 </v>
   <v>      -0.04832732       0.08916729      -0.27305583 </v>
   <v>      -0.10138481       0.00273096       0.27305583 </v>
   <v>       0.05305748       0.08643633       0.27305583 </v>
[...]
        <r>  0.0007  0.0160  0.0068  0.0077  0.0001  0.0000  0.0001  0.0001  0.0001 </r>
        <r>  0.0035  0.0124  0.0291  0.0042  0.0005  0.0000  0.0009  0.0000  0.0002 </r>
        <r>  0.0007  0.0146  0.0072  0.0089  0.0001  0.0000  0.0001  0.0001  0.0001 </r>
       </set>
       <set comment="band 30">
        <r>  0.0002  0.0010  0.0106  0.0016  0.0179  0.0107  0.0190  0.0184  0.0388 </r>
        <r>  0.0002  0.0010  0.0106  0.0016  0.0179  0.0107  0.0190  0.0184  0.0388 </r>
        <r>  0.0000  0.0033  0.0000  0.0100  0.0001  0.0000  0.0000  0.0001  0.0003 </r>
        <r>  0.0000  0.0033  0.0000  0.0100  0.0001  0.0000  0.0000  0.0001  0.0003 </r>
        <r>  0.0012  0.0111  0.0714  0.0061  0.0001  0.0001  0.0005  0.0000  0.0000 </r>
        <r>  0.0000  0.0068  0.0000  0.0203  0.0000  0.0000  0.0000  0.0001  0.0000 </r>
        <r>  0.0011  0.0040  0.0710  0.0132  0.0000  0.0000  0.0005  0.0000  0.0001 </r>
        <r>  0.0012  0.0111  0.0714  0.0061  0.0001  0.0001  0.0005  0.0000  0.0000 </r>
        <r>  0.0000  0.0068  0.0000  0.0203  0.0000  0.0000  0.0000  0.0001  0.0000 </r>
        <r>  0.0011  0.0040  0.0710  0.0132  0.0000  0.0000  0.0005  0.0000  0.0001 </r>
       </set>
       <set comment="band 31">
        <r>  0.0018  0.0037  0.0001  0.0042  0.0018  0.0591  0.0318  0.0267  0.0015 </r>
        <r>  0.0018  0.0037  0.0001  0.0042  0.0018  0.0591  0.0318  0.0267  0.0015 </r>
        <r>  0.0068  0.0012  0.0789  0.0004  0.0000  0.0000  0.0051  0.0000  0.0000 </r>
        <r>  0.0068  0.0012  0.0789  0.0004  0.0000  0.0000  0.0051  0.0000  0.0000 </r>
        <r>  0.0013  0.0002  0.0091  0.0170  0.0001  0.0001  0.0000  0.0005  0.0002 </r>
        <r>  0.0033  0.0157  0.0420  0.0052  0.0002  0.0005  0.0001  0.0002  0.0001 </r>
        <r>  0.0013  0.0136  0.0091  0.0036  0.0003  0.0006  0.0000  0.0000  0.0000 </r>
        <r>  0.0013  0.0002  0.0091  0.0170  0.0001  0.0001  0.0000  0.0005  0.0002 </r>
        <r>  0.0033  0.0157  0.0420  0.0052  0.0002  0.0005  0.0001  0.0002  0.0001 </r>
        <r>  0.0013  0.0136  0.0091  0.0036  0.0003  0.0006  0.0000  0.0000  0.0000 </r>
       </set>
       <set comment="band 32">
        <r>  0.0000  0.0000  0.0001  0.0000  0.0242  0.0300  0.0012  0.0884  0.0515 </r>
        <r>  0.0000  0.0000  0.0001  0.0000  0.0242  0.0300  0.0012  0.0884  0.0515 </r>
        <r>  0.0068  0.0014  0.0114  0.0005  0.0003  0.0001  0.0023  0.0000  0.0001 </r>
        <r>  0.0068  0.0014  0.0114  0.0005  0.0003  0.0001  0.0023  0.0000  0.0001 </r>
        <r>  0.0012  0.0052  0.0147  0.0129  0.0000  0.0004  0.0000  0.0003  0.0001 </r>
        <r>  0.0082  0.0002  0.0676  0.0001  0.0000  0.0003  0.0000  0.0001  0.0000 </r>
        <r>  0.0012  0.0164  0.0147  0.0017  0.0000  0.0000  0.0000  0.0007  0.0000 </r>
        <r>  0.0012  0.0052  0.0147  0.0129  0.0000  0.0004  0.0000  0.0003  0.0001 </r>
        <r>  0.0082  0.0002  0.0676  0.0001  0.0000  0.0003  0.0000  0.0001  0.0000 </r>
        <r>  0.0012  0.0164  0.0147  0.0017  0.0000  0.0000  0.0000  0.0007  0.0000 </r>
       </set>
       <set comment="band 33">
        <r>  0.0001  0.0004  0.0001  0.0003  0.0203  0.0835  0.0069  0.0875  0.0173 </r>
        <r>  0.0001  0.0004  0.0001  0.0003  0.0203  0.0835  0.0069  0.0875  0.0173 </r>
        <r>  0.0000  0.0028  0.0000  0.0083  0.0004  0.0002  0.0000  0.0005  0.0012 </r>
        <r>  0.0000  0.0028  0.0000  0.0083  0.0004  0.0002  0.0000  0.0005  0.0012 </r>
        <r>  0.0060  0.0232  0.0198  0.0119  0.0003  0.0003  0.0001  0.0001  0.0001 </r>
        <r>  0.0000  0.0058  0.0000  0.0172  0.0001  0.0003  0.0000  0.0010  0.0003 </r>
        <r>  0.0060  0.0052  0.0196  0.0300  0.0000  0.0000  0.0001  0.0003  0.0003 </r>
        <r>  0.0060  0.0232  0.0198  0.0119  0.0003  0.0003  0.0001  0.0001  0.0001 </r>
        <r>  0.0000  0.0058  0.0000  0.0172  0.0001  0.0003  0.0000  0.0010  0.0003 </r>
        <r>  0.0060  0.0052  0.0196  0.0300  0.0000  0.0000  0.0001  0.0003  0.0003 </r>
       </set>
       <set comment="band 34">
        <r>  0.0001  0.0001  0.0001  0.0001  0.0858  0.0449  0.0077  0.0238  0.0300 </r>
        <r>  0.0001  0.0001  0.0001  0.0001  0.0858  0.0449  0.0077  0.0238  0.0300 </r>
        <r>  0.0130  0.0005  0.0006  0.0002  0.0001  0.0004  0.0021  0.0001  0.0000 </r>
        <r>  0.0130  0.0005  0.0006  0.0002  0.0001  0.0004  0.0021  0.0001  0.0000 </r>
        <r>  0.0037  0.0081  0.0455  0.0047  0.0000  0.0003  0.0000  0.0002  0.0002 </r>
        <r>  0.0013  0.0186  0.0111  0.0063  0.0003  0.0001  0.0000  0.0000  0.0001 </r>
        <r>  0.0037  0.0052  0.0457  0.0075  0.0002  0.0004  0.0000  0.0001  0.0001 </r>
        <r>  0.0037  0.0081  0.0455  0.0047  0.0000  0.0003  0.0000  0.0002  0.0002 </r>
        <r>  0.0013  0.0186  0.0111  0.0063  0.0003  0.0001  0.0000  0.0000  0.0001 </r>
        <r>  0.0037  0.0052  0.0457  0.0075  0.0002  0.0004  0.0000  0.0001  0.0001 </r>
       </set>
       <set comment="band 35">
        <r>  0.0006  0.0003  0.0005  0.0003  0.0105  0.0718  0.0000  0.0774  0.0112 </r>
        <r>  0.0006  0.0003  0.0005  0.0003  0.0105  0.0718  0.0000  0.0774  0.0112 </r>
        <r>  0.0000  0.0010  0.0000  0.0032  0.0002  0.0000  0.0000  0.0000  0.0006 </r>
        <r>  0.0000  0.0010  0.0000  0.0032  0.0002  0.0000  0.0000  0.0000  0.0006 </r>
        <r>  0.0013  0.0636  0.0013  0.0006  0.0008  0.0003  0.0000  0.0000  0.0003 </r>
        <r>  0.0000  0.0141  0.0000  0.0423  0.0003  0.0002  0.0000  0.0006  0.0009 </r>
        <r>  0.0013  0.0125  0.0013  0.0520  0.0000  0.0000  0.0000  0.0003  0.0010 </r>
        <r>  0.0013  0.0636  0.0013  0.0006  0.0008  0.0003  0.0000  0.0000  0.0003 </r>
        <r>  0.0000  0.0141  0.0000  0.0423  0.0003  0.0002  0.0000  0.0006  0.0009 </r>
        <r>  0.0013  0.0125  0.0013  0.0520  0.0000  0.0000  0.0000  0.0003  0.0010 </r>
       </set>
       <set comment="band 36">
        <r>  0.0000  0.0010  0.0006  0.0006  0.0015  0.0078  0.0002  0.0070  0.0044 </r>
        <r>  0.0000  0.0010  0.0006  0.0006  0.0015  0.0078  0.0002  0.0070  0.0044 </r>
        <r>  0.0811  0.0010  0.0059  0.0003  0.0000  0.0001  0.0018  0.0000  0.0000 </r>
        <r>  0.0811  0.0010  0.0059  0.0003  0.0000  0.0001  0.0018  0.0000  0.0000 </r>
        <r>  0.0037  0.0084  0.0017  0.0529  0.0002  0.0001  0.0002  0.0000  0.0016 </r>
        <r>  0.0040  0.0486  0.0089  0.0162  0.0021  0.0000  0.0001  0.0000  0.0007 </r>
        <r>  0.0036  0.0237  0.0017  0.0373  0.0017  0.0000  0.0002  0.0000  0.0001 </r>
        <r>  0.0037  0.0084  0.0017  0.0529  0.0002  0.0001  0.0002  0.0000  0.0016 </r>
        <r>  0.0040  0.0486  0.0089  0.0162  0.0021  0.0000  0.0001  0.0000  0.0007 </r>
        <r>  0.0036  0.0237  0.0017  0.0373  0.0017  0.0000  0.0002  0.0000  0.0001 </r>
       </set>
       <set comment="band 37">
        <r>  0.0001  0.0005  0.0000  0.0012  0.0065  0.0304  0.0003  0.0175  0.0039 </r>
        <r>  0.0001  0.0005  0.0000  0.0012  0.0065  0.0304  0.0003  0.0175  0.0039 </r>
        <r>  0.0359  0.0003  0.0798  0.0001  0.0000  0.0000  0.0010  0.0000  0.0000 </r>
        <r>  0.0359  0.0003  0.0798  0.0001  0.0000  0.0000  0.0010  0.0000  0.0000 </r>
        <r>  0.0003  0.0006  0.0250  0.0317  0.0001  0.0000  0.0008  0.0004  0.0014 </r>
        <r>  0.0002  0.0163  0.0078  0.0054  0.0010  0.0008  0.0003  0.0003  0.0003 </r>
        <r>  0.0003  0.0202  0.0250  0.0121  0.0014  0.0003  0.0008  0.0001  0.0001 </r>
        <r>  0.0003  0.0006  0.0250  0.0317  0.0001  0.0000  0.0008  0.0004  0.0014 </r>
        <r>  0.0002  0.0163  0.0078  0.0054  0.0010  0.0008  0.0003  0.0003  0.0003 </r>
        <r>  0.0003  0.0202  0.0250  0.0121  0.0014  0.0003  0.0008  0.0001  0.0001 </r>
       </set>
       <set comment="band 38">
        <r>  0.0323  0.0004  0.0025  0.0014  0.0013  0.0008  0.0014  0.0017  0.0012 </r>
        <r>  0.0323  0.0004  0.0025  0.0014  0.0013  0.0008  0.0014  0.0017  0.0012 </r>
        <r>  0.0003  0.0650  0.0001  0.0219  0.0069  0.0037  0.0001  0.0012  0.0023 </r>
        <r>  0.0003  0.0650  0.0001  0.0219  0.0069  0.0037  0.0001  0.0012  0.0023 </r>
        <r>  0.0018  0.0002  0.0007  0.0047  0.0052  0.0018  0.0001  0.0007  0.0020 </r>
        <r>  0.0121  0.0369  0.0004  0.0122  0.0033  0.0015  0.0012  0.0005  0.0011 </r>
        <r>  0.0017  0.0030  0.0007  0.0019  0.0040  0.0011  0.0001  0.0014  0.0032 </r>
        <r>  0.0018  0.0002  0.0007  0.0047  0.0052  0.0018  0.0001  0.0007  0.0020 </r>
        <r>  0.0121  0.0369  0.0004  0.0122  0.0033  0.0015  0.0012  0.0005  0.0011 </r>
        <r>  0.0017  0.0030  0.0007  0.0019  0.0040  0.0011  0.0001  0.0014  0.0032 </r>
       </set>
       <set comment="band 39">
        <r>  0.0249  0.0031  0.0028  0.0022  0.0047  0.0021  0.0025  0.0019  0.0022 </r>
        <r>  0.0249  0.0031  0.0028  0.0022  0.0047  0.0021  0.0025  0.0019  0.0022 </r>
        <r>  0.0000  0.0183  0.0000  0.0545  0.0019  0.0010  0.0000  0.0030  0.0055 </r>
        <r>  0.0000  0.0183  0.0000  0.0545  0.0019  0.0010  0.0000  0.0030  0.0055 </r>
        <r>  0.0074  0.0137  0.0001  0.0306  0.0020  0.0005  0.0007  0.0011  0.0036 </r>
        <r>  0.0000  0.0013  0.0000  0.0040  0.0018  0.0003  0.0000  0.0009  0.0054 </r>
        <r>  0.0074  0.0432  0.0001  0.0011  0.0023  0.0010  0.0008  0.0006  0.0033 </r>
        <r>  0.0074  0.0137  0.0001  0.0306  0.0020  0.0005  0.0007  0.0011  0.0036 </r>
        <r>  0.0000  0.0013  0.0000  0.0040  0.0018  0.0003  0.0000  0.0009  0.0054 </r>
        <r>  0.0074  0.0432  0.0001  0.0011  0.0023  0.0010  0.0008  0.0006  0.0033 </r>
       </set>
       <set comment="band 40">
        <r>  0.0093  0.0003  0.0036  0.0005  0.0022  0.0041  0.0016  0.0032  0.0044 </r>
        <r>  0.0093  0.0003  0.0036  0.0005  0.0022  0.0041  0.0016  0.0032  0.0044 </r>
        <r>  0.0000  0.0214  0.0000  0.0650  0.0023  0.0002  0.0000  0.0007  0.0070 </r>
        <r>  0.0000  0.0214  0.0000  0.0650  0.0023  0.0002  0.0000  0.0007  0.0070 </r>
        <r>  0.0081  0.0099  0.0019  0.0158  0.0024  0.0001  0.0018  0.0001  0.0053 </r>
        <r>  0.0000  0.0033  0.0000  0.0096  0.0024  0.0000  0.0000  0.0001  0.0074 </r>
        <r>  0.0081  0.0251  0.0019  0.0006  0.0027  0.0001  0.0018  0.0001  0.0050 </r>
        <r>  0.0081  0.0099  0.0019  0.0158  0.0024  0.0001  0.0018  0.0001  0.0053 </r>
        <r>  0.0000  0.0033  0.0000  0.0096  0.0024  0.0000  0.0000  0.0001  0.0074 </r>
        <r>  0.0081  0.0251  0.0019  0.0006  0.0027  0.0001  0.0018  0.0001  0.0050 </r>
       </set>
       <set comment="band 41">
        <r>  0.0141  0.0004  0.0046  0.0013  0.0021  0.0004  0.0025  0.0004  0.0045 </r>
        <r>  0.0141  0.0004  0.0046  0.0013  0.0021  0.0004  0.0025  0.0004  0.0045 </r>
        <r>  0.0012  0.0656  0.0092  0.0216  0.0085  0.0010  0.0025  0.0003  0.0028 </r>
        <r>  0.0012  0.0656  0.0092  0.0216  0.0085  0.0010  0.0025  0.0003  0.0028 </r>
        <r>  0.0011  0.0013  0.0033  0.0013  0.0068  0.0001  0.0008  0.0006  0.0024 </r>
        <r>  0.0166  0.0216  0.0019  0.0072  0.0035  0.0003  0.0012  0.0001  0.0012 </r>
        <r>  0.0012  0.0002  0.0033  0.0024  0.0057  0.0004  0.0008  0.0003  0.0035 </r>
        <r>  0.0011  0.0013  0.0033  0.0013  0.0068  0.0001  0.0008  0.0006  0.0024 </r>
        <r>  0.0166  0.0216  0.0019  0.0072  0.0035  0.0003  0.0012  0.0001  0.0012 </r>
        <r>  0.0012  0.0002  0.0033  0.0024  0.0057  0.0004  0.0008  0.0003  0.0035 </r>
       </set>
       <set comment="band 42">
        <r>  0.0006  0.0029  0.0000  0.0010  0.0039  0.0015  0.0003  0.0019  0.0034 </r>
        <r>  0.0006  0.0029  0.0000  0.0010  0.0039  0.0015  0.0003  0.0019  0.0034 </r>
        <r>  0.0255  0.0084  0.0678  0.0028  0.0011  0.0001  0.0109  0.0000  0.0004 </r>
        <r>  0.0255  0.0084  0.0678  0.0028  0.0011  0.0001  0.0109  0.0000  0.0004 </r>
        <r>  0.0011  0.0002  0.0072  0.0002  0.0007  0.0003  0.0006  0.0042  0.0003 </r>
        <r>  0.0014  0.0042  0.0249  0.0014  0.0005  0.0023  0.0007  0.0008  0.0002 </r>
        <r>  0.0011  0.0003  0.0072  0.0001  0.0004  0.0042  0.0006  0.0004  0.0006 </r>
        <r>  0.0011  0.0002  0.0072  0.0002  0.0007  0.0003  0.0006  0.0042  0.0003 </r>
        <r>  0.0014  0.0042  0.0249  0.0014  0.0005  0.0023  0.0007  0.0008  0.0002 </r>
        <r>  0.0011  0.0003  0.0072  0.0001  0.0004  0.0042  0.0006  0.0004  0.0006 </r>
       </set>
       <set comment="band 43">
        <r>  0.0026  0.0012  0.0008  0.0035  0.0001  0.0000  0.0003  0.0001  0.0001 </r>
        <r>  0.0026  0.0012  0.0008  0.0035  0.0001  0.0000  0.0003  0.0001  0.0001 </r>
        <r>  0.0035  0.0032  0.0028  0.0010  0.0008  0.0001  0.0022  0.0000  0.0003 </r>
        <r>  0.0035  0.0032  0.0028  0.0010  0.0008  0.0001  0.0022  0.0000  0.0003 </r>
        <r>  0.0005  0.0002  0.0008  0.0008  0.0005  0.0014  0.0008  0.0000  0.0001 </r>
        <r>  0.0011  0.0058  0.0048  0.0020  0.0003  0.0001  0.0030  0.0000  0.0001 </r>
        <r>  0.0005  0.0010  0.0008  0.0000  0.0001  0.0003  0.0008  0.0011  0.0004 </r>
        <r>  0.0005  0.0002  0.0008  0.0008  0.0005  0.0014  0.0008  0.0000  0.0001 </r>
        <r>  0.0011  0.0058  0.0048  0.0020  0.0003  0.0001  0.0030  0.0000  0.0001 </r>
        <r>  0.0005  0.0010  0.0008  0.0000  0.0001  0.0003  0.0008  0.0011  0.0004 </r>
       </set>
       <set comment="band 44">
        <r>  0.0305  0.0042  0.0044  0.0036  0.0020  0.0004  0.0042  0.0002  0.0033 </r>
        <r>  0.0305  0.0042  0.0044  0.0036  0.0020  0.0004  0.0042  0.0002  0.0033 </r>
        <r>  0.0003  0.0122  0.0026  0.0040  0.0008  0.0012  0.0009  0.0004  0.0003 </r>
        <r>  0.0003  0.0122  0.0026  0.0040  0.0008  0.0012  0.0009  0.0004  0.0003 </r>
        <r>  0.0001  0.0082  0.0002  0.0009  0.0005  0.0108  0.0003  0.0006  0.0005 </r>
        <r>  0.0015  0.0031  0.0082  0.0011  0.0004  0.0025  0.0052  0.0008  0.0001 </r>
        <r>  0.0001  0.0007  0.0002  0.0082  0.0009  0.0050  0.0003  0.0063  0.0001 </r>
        <r>  0.0001  0.0082  0.0002  0.0009  0.0005  0.0108  0.0003  0.0006  0.0005 </r>
        <r>  0.0015  0.0031  0.0082  0.0011  0.0004  0.0025  0.0052  0.0008  0.0001 </r>
        <r>  0.0001  0.0007  0.0002  0.0082  0.0009  0.0050  0.0003  0.0063  0.0001 </r>
       </set>
       <set comment="band 45">
        <r>  0.0076  0.0026  0.0013  0.0011  0.0015  0.0003  0.0013  0.0002  0.0021 </r>
        <r>  0.0076  0.0026  0.0013  0.0011  0.0015  0.0003  0.0013  0.0002  0.0021 </r>
        <r>  0.0000  0.0005  0.0000  0.0016  0.0001  0.0001  0.0000  0.0003  0.0002 </r>
        <r>  0.0000  0.0005  0.0000  0.0016  0.0001  0.0001  0.0000  0.0003  0.0002 </r>
        <r>  0.0021  0.0017  0.0081  0.0004  0.0001  0.0011  0.0017  0.0014  0.0001 </r>
        <r>  0.0000  0.0012  0.0000  0.0036  0.0000  0.0011  0.0000  0.0032  0.0001 </r>
        <r>  0.0021  0.0012  0.0080  0.0010  0.0000  0.0005  0.0017  0.0021  0.0001 </r>
        <r>  0.0021  0.0017  0.0081  0.0004  0.0001  0.0011  0.0017  0.0014  0.0001 </r>
        <r>  0.0000  0.0012  0.0000  0.0036  0.0000  0.0011  0.0000  0.0032  0.0001 </r>
        <r>  0.0021  0.0012  0.0080  0.0010  0.0000  0.0005  0.0017  0.0021  0.0001 </r>
       </set>
       <set comment="band 46">
        <r>  0.0015  0.0016  0.0005  0.0017  0.0000  0.0000  0.0015  0.0000  0.0000 </r>
        <r>  0.0015  0.0016  0.0005  0.0017  0.0000  0.0000  0.0015  0.0000  0.0000 </r>
        <r>  0.0000  0.0017  0.0000  0.0052  0.0001  0.0000  0.0000  0.0000  0.0004 </r>
        <r>  0.0000  0.0017  0.0000  0.0052  0.0001  0.0000  0.0000  0.0000  0.0004 </r>
        <r>  0.0014  0.0005  0.0029  0.0042  0.0001  0.0002  0.0025  0.0001  0.0005 </r>
        <r>  0.0000  0.0002  0.0000  0.0007  0.0002  0.0002  0.0000  0.0005  0.0005 </r>
        <r>  0.0014  0.0042  0.0029  0.0005  0.0002  0.0000  0.0025  0.0002  0.0004 </r>
        <r>  0.0014  0.0005  0.0029  0.0042  0.0001  0.0002  0.0025  0.0001  0.0005 </r>
        <r>  0.0000  0.0002  0.0000  0.0007  0.0002  0.0002  0.0000  0.0005  0.0005 </r>
        <r>  0.0014  0.0042  0.0029  0.0005  0.0002  0.0000  0.0025  0.0002  0.0004 </r>
       </set>
       <set comment="band 47">
        <r>  0.0248  0.0011  0.0017  0.0025  0.0002  0.0005  0.0006  0.0004  0.0003 </r>
        <r>  0.0248  0.0011  0.0017  0.0025  0.0002  0.0005  0.0006  0.0004  0.0003 </r>
        <r>  0.0015  0.0066  0.0170  0.0022  0.0001  0.0014  0.0021  0.0005  0.0000 </r>
        <r>  0.0015  0.0066  0.0170  0.0022  0.0001  0.0014  0.0021  0.0005  0.0000 </r>
        <r>  0.0001  0.0045  0.0041  0.0003  0.0002  0.0065  0.0000  0.0005  0.0002 </r>
        <r>  0.0010  0.0012  0.0097  0.0004  0.0012  0.0022  0.0004  0.0007  0.0004 </r>
        <r>  0.0001  0.0004  0.0041  0.0045  0.0000  0.0030  0.0000  0.0039  0.0003 </r>
        <r>  0.0001  0.0045  0.0041  0.0003  0.0002  0.0065  0.0000  0.0005  0.0002 </r>
        <r>  0.0010  0.0012  0.0097  0.0004  0.0012  0.0022  0.0004  0.0007  0.0004 </r>
        <r>  0.0001  0.0004  0.0041  0.0045  0.0000  0.0030  0.0000  0.0039  0.0003 </r>
       </set>
       <set comment="band 48">
        <r>  0.0017  0.0002  0.0000  0.0003  0.0000  0.0000  0.0005  0.0000  0.0000 </r>
        <r>  0.0017  0.0002  0.0000  0.0003  0.0000  0.0000  0.0005  0.0000  0.0000 </r>
        <r>  0.0000  0.0002  0.0000  0.0006  0.0000  0.0000  0.0000  0.0000  0.0000 </r>
        <r>  0.0000  0.0002  0.0000  0.0006  0.0000  0.0000  0.0000  0.0000  0.0000 </r>
        <r>  0.0007  0.0002  0.0001  0.0006  0.0000  0.0000  0.0007  0.0000  0.0001 </r>
        <r>  0.0000  0.0002  0.0000  0.0005  0.0000  0.0000  0.0000  0.0000  0.0001 </r>
        <r>  0.0007  0.0007  0.0001  0.0002  0.0001  0.0000  0.0008  0.0000  0.0000 </r>
        <r>  0.0007  0.0002  0.0001  0.0006  0.0000  0.0000  0.0007  0.0000  0.0001 </r>
        <r>  0.0000  0.0002  0.0000  0.0005  0.0000  0.0000  0.0000  0.0000  0.0001 </r>
        <r>  0.0007  0.0007  0.0001  0.0002  0.0001  0.0000  0.0008  0.0000  0.0000 </r>
       </set>
      </set>
     </set>
    </set>
   </array>
  </projected>
 </calculation>
 <structure name="finalpos" >
  <crystal>
   <varray name="basis" >
    <v>       6.28160251       0.00000103       0.00000000 </v>
    <v>       3.14080000       5.44002760      -0.00000000 </v>
    <v>       0.00000000       0.00000000      23.74272077 </v>
   </varray>
   <i name="volume">    811.33833815 </i>
   <varray name="rec_basis" >
    <v>       0.15919506      -0.09191127      -0.00000000 </v>
    <v>      -0.00000003       0.18382261      -0.00000000 </v>
    <v>      -0.00000000       0.00000000       0.04211817 </v>
   </varray>
  </crystal>
  <varray name="positions" >
   <v>       0.33333300       0.33333300       0.49999852 </v>
   <v>       0.66666700       0.66666700       0.50000148 </v>
   <v>       0.00000000       0.00000000       0.44821600 </v>
   <v>       0.00000000       0.00000000       0.55178400 </v>
   <v>       0.61268447      -0.00011707       0.56407952 </v>
   <v>      -0.00011707       0.38743360       0.56407952 </v>
   <v>       0.38743360       0.61268447       0.56407952 </v>
   <v>       0.38731553       0.00011707       0.43592048 </v>
   <v>       0.00011707       0.61256640       0.43592048 </v>
   <v>       0.61256640       0.38731553       0.43592048 </v>
  </varray>
  <varray name="selective"  type="logical" >
   <v type="logical" >  T  T  T </v>
   <v type="logical" >  T  T  T </v>
   <v type="logical" >  F  F  F </v>
   <v type="logical" >  F  F  F </v>
   <v type="logical" >  T  T  T </v>
   <v type="logical" >  T  T  T </v>
   <v type="logical" >  T  T  T </v>
   <v type="logical" >  T  T  T </v>
   <v type="logical" >  T  T  T </v>
   <v type="logical" >  T  T  T </v>
  </varray>
  <nose>
   <v>      -3.00000000       0.00000000       0.00010000       0.00010000 </v>
  </nose>
 </structure>
</modeling>
