unknown system                          
           1
     6.907777   -0.000000    0.000000
     3.453888    5.982310    0.000000
     0.000000    0.000000   23.444588
   Ni   Ge   Se
   2   2   6
Direct configuration=     1
   0.33333300  0.33333300  0.49992500
   0.66666700  0.66666700  0.50007500
   0.00000000  0.00000000  0.44821600
   0.00000000  0.00000000  0.55178400
   0.62635700  0.00042000  0.57375200
   0.00042000  0.37322400  0.57375200
   0.37322400  0.62635700  0.57375200
   0.37364300  0.99958000  0.42624800
   0.99958000  0.62677600  0.42624800
   0.62677600  0.37364300  0.42624800
unknown system                          
           1
     6.203816    0.000000   -0.000000
     3.101908    5.372662   -0.000000
    -0.000000    0.000000   22.209889
   Ni   Ge   Se
   2   2   6
Direct configuration=     2
   0.33333300  0.33333300  0.49994347
   0.66666700  0.66666700  0.50005653
   0.00000000  0.00000000  0.44821600
   0.00000000  0.00000000  0.55178400
   0.62943372  0.00038471  0.57122610
   0.00038471  0.37018257  0.57122610
   0.37018257  0.62943372  0.57122610
   0.37056628  0.99961529  0.42877390
   0.99961529  0.62981743  0.42877390
   0.62981743  0.37056628  0.42877390
unknown system                          
           1
     6.292541    0.000000   -0.000000
     3.146270    5.449500   -0.000000
    -0.000000    0.000000   22.365507
   Ni   Ge   Se
   2   2   6
Direct configuration=     3
   0.33333300  0.33333300  0.49994101
   0.66666700  0.66666700  0.50005899
   0.00000000  0.00000000  0.44821600
   0.00000000  0.00000000  0.55178400
   0.62900194  0.00038966  0.57156215
   0.00038966  0.37060940  0.57156215
   0.37060940  0.62900194  0.57156215
   0.37099806  0.99961034  0.42843785
   0.99961034  0.62939060  0.42843785
   0.62939060  0.37099806  0.42843785
unknown system                          
           1
     6.273958    0.000000   -0.000000
     3.136979    5.433407   -0.000000
    -0.000000    0.000000   22.367491
   Ni   Ge   Se
   2   2   6
Direct configuration=     4
   0.33333300  0.33333300  0.49994401
   0.66666700  0.66666700  0.50005599
   0.00000000  0.00000000  0.44821600
   0.00000000  0.00000000  0.55178400
   0.62428589  0.00035332  0.57104441
   0.00035332  0.37536179  0.57104441
   0.37536179  0.62428589  0.57104441
   0.37571411  0.99964668  0.42895559
   0.99964668  0.62463821  0.42895559
   0.62463821  0.37571411  0.42895559
unknown system                          
           1
     6.256603    0.000000   -0.000000
     3.128301    5.418377   -0.000000
    -0.000000    0.000000   22.369345
   Ni   Ge   Se
   2   2   6
Direct configuration=     5
   0.33333300  0.33333300  0.49994682
   0.66666700  0.66666700  0.50005318
   0.00000000  0.00000000  0.44821600
   0.00000000  0.00000000  0.55178400
   0.61986841  0.00031928  0.57056092
   0.00031928  0.37981331  0.57056092
   0.37981331  0.61986841  0.57056092
   0.38013159  0.99968072  0.42943908
   0.99968072  0.62018669  0.42943908
   0.62018669  0.38013159  0.42943908
unknown system                          
           1
     6.221894    0.000000   -0.000000
     3.110946    5.388318   -0.000000
    -0.000000    0.000000   22.373051
   Ni   Ge   Se
   2   2   6
Direct configuration=     6
   0.33333300  0.33333300  0.49995243
   0.66666700  0.66666700  0.50004757
   0.00000000  0.00000000  0.44821600
   0.00000000  0.00000000  0.55178400
   0.61100896  0.00025101  0.56959402
   0.00025101  0.38874103  0.56959402
   0.38874103  0.61100896  0.56959402
   0.38899104  0.99974899  0.43040598
   0.99974899  0.61125897  0.43040598
   0.61125897  0.38899104  0.43040598
unknown system                          
           1
     6.232597    0.000000   -0.000000
     3.116298    5.397587   -0.000000
    -0.000000    0.000000   22.371908
   Ni   Ge   Se
   2   2   6
Direct configuration=     7
   0.33333300  0.33333300  0.49995070
   0.66666700  0.66666700  0.50004930
   0.00000000  0.00000000  0.44821600
   0.00000000  0.00000000  0.55178400
   0.61375607  0.00027218  0.56989212
   0.00027218  0.38597275  0.56989212
   0.38597275  0.61375607  0.56989212
   0.38624393  0.99972782  0.43010788
   0.99972782  0.61402725  0.43010788
   0.61402725  0.38624393  0.43010788
unknown system                          
           1
     6.264916    0.000000   -0.000000
     3.132457    5.425576   -0.000000
    -0.000000    0.000000   22.649047
   Ni   Ge   Se
   2   2   6
Direct configuration=     8
   0.33333300  0.33333300  0.49995238
   0.66666700  0.66666700  0.50004762
   0.00000000  0.00000000  0.44821600
   0.00000000  0.00000000  0.55178400
   0.61278105  0.00016637  0.56914644
   0.00016637  0.38705358  0.56914644
   0.38705358  0.61278105  0.56914644
   0.38721895  0.99983363  0.43085356
   0.99983363  0.61294642  0.43085356
   0.61294642  0.38721895  0.43085356
unknown system                          
           1
     6.323485    0.000000   -0.000000
     3.161742    5.476299   -0.000000
    -0.000000   -0.000000   23.151279
   Ni   Ge   Se
   2   2   6
Direct configuration=     9
   0.33333300  0.33333300  0.49995540
   0.66666700  0.66666700  0.50004460
   0.00000000  0.00000000  0.44821600
   0.00000000  0.00000000  0.55178400
   0.61102324 -0.00002438  0.56781165
  -0.00002438  0.38900214  0.56781165
   0.38900214  0.61102324  0.56781165
   0.38897676  0.00002438  0.43218835
   0.00002438  0.61099786  0.43218835
   0.61099786  0.38897676  0.43218835
unknown system                          
           1
     6.298506    0.000000   -0.000000
     3.149252    5.454666   -0.000000
    -0.000000    0.000000   22.937078
   Ni   Ge   Se
   2   2   6
Direct configuration=    10
   0.33333300  0.33333300  0.49995414
   0.66666700  0.66666700  0.50004586
   0.00000000  0.00000000  0.44821600
   0.00000000  0.00000000  0.55178400
   0.61176600  0.00005622  0.56836859
   0.00005622  0.38817878  0.56836859
   0.38817878  0.61176600  0.56836859
   0.38823400 -0.00005622  0.43163141
  -0.00005622  0.61182122  0.43163141
   0.61182122  0.38823400  0.43163141
unknown system                          
           1
     6.297284    0.000000    0.000000
     3.148641    5.453608   -0.000000
    -0.000000    0.000000   23.028887
   Ni   Ge   Se
   2   2   6
Direct configuration=    11
   0.33333300  0.33333300  0.49995714
   0.66666700  0.66666700  0.50004286
   0.00000000  0.00000000  0.44821600
   0.00000000  0.00000000  0.55178400
   0.61166991  0.00001626  0.56793987
   0.00001626  0.38831483  0.56793987
   0.38831483  0.61166991  0.56793987
   0.38833009 -0.00001626  0.43206013
  -0.00001626  0.61168517  0.43206013
   0.61168517  0.38833009  0.43206013
unknown system                          
           1
     6.293619    0.000001    0.000000
     3.146809    5.450434   -0.000000
     0.000000    0.000000   23.304315
   Ni   Ge   Se
   2   2   6
Direct configuration=    12
   0.33333300  0.33333300  0.49996611
   0.66666700  0.66666700  0.50003389
   0.00000000  0.00000000  0.44821600
   0.00000000  0.00000000  0.55178400
   0.61138159 -0.00010366  0.56665886
  -0.00010366  0.38872307  0.56665886
   0.38872307  0.61138159  0.56665886
   0.38861841  0.00010366  0.43334114
   0.00010366  0.61127693  0.43334114
   0.61127693  0.38861841  0.43334114
unknown system                          
           1
     6.286288    0.000001    0.000000
     3.143143    5.444085   -0.000000
     0.000000    0.000000   23.855172
   Ni   Ge   Se
   2   2   6
Direct configuration=    13
   0.33333300  0.33333300  0.49998383
   0.66666700  0.66666700  0.50001617
   0.00000000  0.00000000  0.44821600
   0.00000000  0.00000000  0.55178400
   0.61080460 -0.00034363  0.56412710
  -0.00034363  0.38954003  0.56412710
   0.38954003  0.61080460  0.56412710
   0.38919540  0.00034363  0.43587290
   0.00034363  0.61045997  0.43587290
   0.61045997  0.38919540  0.43587290
unknown system                          
           1
     6.279088    0.000001    0.000000
     3.139543    5.437849   -0.000000
     0.000000    0.000000   23.771723
   Ni   Ge   Se
   2   2   6
Direct configuration=    14
   0.33333300  0.33333300  0.50000267
   0.66666700  0.66666700  0.49999733
   0.00000000  0.00000000  0.44821600
   0.00000000  0.00000000  0.55178400
   0.61125450 -0.00027090  0.56424026
  -0.00027090  0.38901740  0.56424026
   0.38901740  0.61125450  0.56424026
   0.38874550  0.00027090  0.43575974
   0.00027090  0.61098260  0.43575974
   0.61098260  0.38874550  0.43575974
unknown system                          
           1
     6.268088    0.000001    0.000000
     3.134043    5.428323   -0.000000
     0.000000    0.000000   23.644247
   Ni   Ge   Se
   2   2   6
Direct configuration=    15
   0.33333300  0.33333300  0.50003157
   0.66666700  0.66666700  0.49996843
   0.00000000  0.00000000  0.44821600
   0.00000000  0.00000000  0.55178400
   0.61194255 -0.00015966  0.56441374
  -0.00015966  0.38821811  0.56441374
   0.38821811  0.61194255  0.56441374
   0.38805745  0.00015966  0.43558626
   0.00015966  0.61178189  0.43558626
   0.61178189  0.38805745  0.43558626
unknown system                          
           1
     6.273679    0.000001    0.000000
     3.136838    5.433165   -0.000000
     0.000000    0.000000   23.709041
   Ni   Ge   Se
   2   2   6
Direct configuration=    16
   0.33333300  0.33333300  0.50001680
   0.66666700  0.66666700  0.49998320
   0.00000000  0.00000000  0.44821600
   0.00000000  0.00000000  0.55178400
   0.61159221 -0.00021630  0.56432509
  -0.00021630  0.38862508  0.56432509
   0.38862508  0.61159221  0.56432509
   0.38840779  0.00021630  0.43567491
   0.00021630  0.61137492  0.43567491
   0.61137492  0.38840779  0.43567491
unknown system                          
           1
     6.276126    0.000001    0.000000
     3.138062    5.435284   -0.000000
     0.000000    0.000000   23.715284
   Ni   Ge   Se
   2   2   6
Direct configuration=    17
   0.33333300  0.33333300  0.50002168
   0.66666700  0.66666700  0.49997832
   0.00000000  0.00000000  0.44821600
   0.00000000  0.00000000  0.55178400
   0.61176357 -0.00018099  0.56428031
  -0.00018099  0.38841842  0.56428031
   0.38841842  0.61176357  0.56428031
   0.38823643  0.00018099  0.43571969
   0.00018099  0.61158158  0.43571969
   0.61158158  0.38823643  0.43571969
unknown system                          
           1
     6.283467    0.000001    0.000000
     3.141732    5.441642   -0.000000
     0.000000    0.000000   23.734013
   Ni   Ge   Se
   2   2   6
Direct configuration=    18
   0.33333300  0.33333300  0.50003630
   0.66666700  0.66666700  0.49996370
   0.00000000  0.00000000  0.44821600
   0.00000000  0.00000000  0.55178400
   0.61227742 -0.00007511  0.56414602
  -0.00007511  0.38779868  0.56414602
   0.38779868  0.61227742  0.56414602
   0.38772258  0.00007511  0.43585398
   0.00007511  0.61220132  0.43585398
   0.61220132  0.38772258  0.43585398
unknown system                          
           1
     6.282861    0.000001    0.000000
     3.141429    5.441118   -0.000000
     0.000000    0.000000   23.736841
   Ni   Ge   Se
   2   2   6
Direct configuration=    19
   0.33333300  0.33333300  0.50002403
   0.66666700  0.66666700  0.49997597
   0.00000000  0.00000000  0.44821600
   0.00000000  0.00000000  0.55178400
   0.61240964 -0.00008874  0.56412442
  -0.00008874  0.38768010  0.56412442
   0.38768010  0.61240964  0.56412442
   0.38759036  0.00008874  0.43587558
   0.00008874  0.61231990  0.43587558
   0.61231990  0.38759036  0.43587558
unknown system                          
           1
     6.281603    0.000001    0.000000
     3.140800    5.440028   -0.000000
     0.000000    0.000000   23.742721
   Ni   Ge   Se
   2   2   6
Direct configuration=    20
   0.33333300  0.33333300  0.49999852
   0.66666700  0.66666700  0.50000148
   0.00000000  0.00000000  0.44821600
   0.00000000  0.00000000  0.55178400
   0.61268447 -0.00011707  0.56407952
  -0.00011707  0.38743360  0.56407952
   0.38743360  0.61268447  0.56407952
   0.38731553  0.00011707  0.43592048
   0.00011707  0.61256640  0.43592048
   0.61256640  0.38731553  0.43592048
