 vasp.5.4.4.18Apr17-6-g9f103f2a35 (build May  1 2020 15:48:39) complex           
 executed on             LinuxGNU date 2020.06.29  11:31:28
 running on   16 total cores
 distrk:  each k-point on   16 cores,    1 groups
 distr:  one band on NCORES_PER_BAND=   1 cores,   16 groups


--------------------------------------------------------------------------------------------------------


 INCAR:
 POTCAR:   PAW_PBE Co 06Sep2000                   
 POTCAR:   PAW_PBE Ge 05Jan2001                   
 POTCAR:    PAW_PBE S 17Jan2003                   

 ----------------------------------------------------------------------------- 
|                                                                             |
|           W    W    AA    RRRRR   N    N  II  N    N   GGGG   !!!           |
|           W    W   A  A   R    R  NN   N  II  NN   N  G    G  !!!           |
|           W    W  A    A  R    R  N N  N  II  N N  N  G       !!!           |
|           W WW W  AAAAAA  RRRRR   N  N N  II  N  N N  G  GGG   !            |
|           WW  WW  A    A  R   R   N   NN  II  N   NN  G    G                |
|           W    W  A    A  R    R  N    N  II  N    N   GGGG   !!!           |
|                                                                             |
|      For optimal performance we recommend to set                            |
|        NCORE= 4 - approx SQRT( number of cores)                             |
|      NCORE specifies how many cores store one orbital (NPAR=cpu/NCORE).     |
|      This setting can  greatly improve the performance of VASP for DFT.     |
|      The default,   NCORE=1            might be grossly inefficient         |
|      on modern multi-core architectures or massively parallel machines.     |
|      Do your own testing !!!!                                               |
|      Unfortunately you need to use the default for GW and RPA calculations. |
|      (for HF NCORE is supported but not extensively tested yet)             |
|                                                                             |
 ----------------------------------------------------------------------------- 


 ----------------------------------------------------------------------------- 
|                                                                             |
|  ADVICE TO THIS USER RUNNING 'VASP/VAMP'   (HEAR YOUR MASTER'S VOICE ...):  |
|                                                                             |
|      You have switched on vdW-DFT.                                          |
|      This routine was written and supplied by Jiri Klimes.                  |
|      We recommed that you carefully read and cite the following             |
|      publication                                                            |
|      J. Klimes, D.R. Bowler, A. Michelides                                  |
|        J. Phys.: Cond Matt. 22 022201 (2010)                                |
|      J. Klimes, D.R. Bowler, A. Michelides                                  |
|        Phys. Rev. B. 83, 195131 (2011)                                      |
|      and references therein.                                                |
|                                                                             |
 ----------------------------------------------------------------------------- 

 POTCAR:   PAW_PBE Co 06Sep2000                   
   VRHFIN =Co: d8 s1                                                            
   LEXCH  = PE                                                                  
   EATOM  =   813.5563 eV,   59.7947 Ry                                         
                                                                                
   TITEL  = PAW_PBE Co 06Sep2000                                                
   LULTRA =        F    use ultrasoft PP ?                                      
   IUNSCR =        1    unscreen: 0-lin 1-nonlin 2-no                           
   RPACOR =    2.000    partial core radius                                     
   POMASS =   58.933; ZVAL   =    9.000    mass and valenz                      
   RCORE  =    2.300    outmost cutoff radius                                   
   RWIGS  =    2.460; RWIGS  =    1.302    wigner-seitz radius (au A)           
   ENMAX  =  267.969; ENMIN  =  200.977 eV                                      
   RCLOC  =    1.697    cutoff for local pot                                    
   LCOR   =        T    correct aug charges                                     
   LPAW   =        T    paw PP                                                  
   EAUG   =  477.818                                                            
   DEXC   =    -.016                                                            
   RMAX   =    2.817    core radius for proj-oper                               
   RAUG   =    1.300    factor for augmentation sphere                          
   RDEP   =    2.393    radius for radial grids                                 
   QCUT   =   -4.438; QGAM   =    8.876    optimization parameters              
                                                                                
   Description                                                                  
     l     E      TYP  RCUT    TYP  RCUT                                        
     2   .000     23  2.300                                                     
     2   .000     23  2.300                                                     
     0   .000     23  2.300                                                     
     0   .000     23  2.300                                                     
     1  -.200     23  2.300                                                     
     1   .000     23  2.300                                                     
     3   .000      7   .000                                                     
  local pseudopotential read in
  partial core-charges read in
  atomic valenz-charges read in
  non local Contribution for L=           2  read in
    real space projection operators read in
  non local Contribution for L=           2  read in
    real space projection operators read in
  non local Contribution for L=           0  read in
    real space projection operators read in
  non local Contribution for L=           0  read in
    real space projection operators read in
  non local Contribution for L=           1  read in
    real space projection operators read in
  non local Contribution for L=           1  read in
    real space projection operators read in
    PAW grid and wavefunctions read in

   number of l-projection  operators is LMAX  =           6
   number of lm-projection operators is LMMAX =          18

 POTCAR:   PAW_PBE Ge 05Jan2001                   
   VRHFIN =Ge: s2p2                                                             
   LEXCH  = PE                                                                  
   EATOM  =   104.9960 eV,    7.7170 Ry                                         
                                                                                
   TITEL  = PAW_PBE Ge 05Jan2001                                                
   LULTRA =        F    use ultrasoft PP ?                                      
   IUNSCR =        1    unscreen: 0-lin 1-nonlin 2-no                           
   RPACOR =    2.170    partial core radius                                     
   POMASS =   72.610; ZVAL   =    4.000    mass and valenz                      
   RCORE  =    2.300    outmost cutoff radius                                   
   RWIGS  =    2.300; RWIGS  =    1.217    wigner-seitz radius (au A)           
   ENMAX  =  173.807; ENMIN  =  130.355 eV                                      
   ICORE  =        3    local potential                                         
   LCOR   =        T    correct aug charges                                     
   LPAW   =        T    paw PP                                                  
   EAUG   =  385.843                                                            
   DEXC   =    -.138                                                            
   RMAX   =    3.497    core radius for proj-oper                               
   RAUG   =    1.300    factor for augmentation sphere                          
   RDEP   =    2.318    radius for radial grids                                 
   QCUT   =   -3.574; QGAM   =    7.148    optimization parameters              
                                                                                
   Description                                                                  
     l     E      TYP  RCUT    TYP  RCUT                                        
     0   .000     23  2.300                                                     
     0   .000     23  2.300                                                     
     1   .000     23  2.300                                                     
     1   .000     23  2.300                                                     
     2   .000     23  2.300                                                     
     3  -.100      7  2.300                                                     
  local pseudopotential read in
  partial core-charges read in
  atomic valenz-charges read in
  non local Contribution for L=           0  read in
    real space projection operators read in
  non local Contribution for L=           0  read in
    real space projection operators read in
  non local Contribution for L=           1  read in
    real space projection operators read in
  non local Contribution for L=           1  read in
    real space projection operators read in
  non local Contribution for L=           2  read in
    real space projection operators read in
    PAW grid and wavefunctions read in

   number of l-projection  operators is LMAX  =           5
   number of lm-projection operators is LMMAX =          13

 POTCAR:    PAW_PBE S 17Jan2003                   
   VRHFIN =S : s2p4                                                             
   LEXCH  = PE                                                                  
   EATOM  =   276.8230 eV,   20.3459 Ry                                         
                                                                                
   TITEL  = PAW_PBE S 17Jan2003                                                 
   LULTRA =        F    use ultrasoft PP ?                                      
   IUNSCR =        1    unscreen: 0-lin 1-nonlin 2-no                           
   RPACOR =    1.500    partial core radius                                     
   POMASS =   32.066; ZVAL   =    6.000    mass and valenz                      
   RCORE  =    1.900    outmost cutoff radius                                   
   RWIGS  =    2.200; RWIGS  =    1.164    wigner-seitz radius (au A)           
   ENMAX  =  280.000; ENMIN  =  194.016 eV                                      
   ICORE  =        2    local potential                                         
   LCOR   =        T    correct aug charges                                     
   LPAW   =        T    paw PP                                                  
   EAUG   =  335.092                                                            
   DEXC   =     .000                                                            
   RMAX   =    2.867    core radius for proj-oper                               
   RAUG   =    1.300    factor for augmentation sphere                          
   RDEP   =    1.954    radius for radial grids                                 
   QCUT   =   -4.360; QGAM   =    8.721    optimization parameters              
                                                                                
   Description                                                                  
     l     E      TYP  RCUT    TYP  RCUT                                        
     0   .000     23  1.900                                                     
     0   .000     23  1.900                                                     
     1   .000     23  1.900                                                     
     1   .000     23  1.900                                                     
     2   .000     23  1.900                                                     
  local pseudopotential read in
  partial core-charges read in
  atomic valenz-charges read in
  non local Contribution for L=           0  read in
    real space projection operators read in
  non local Contribution for L=           0  read in
    real space projection operators read in
  non local Contribution for L=           1  read in
    real space projection operators read in
  non local Contribution for L=           1  read in
    real space projection operators read in
    PAW grid and wavefunctions read in

   number of l-projection  operators is LMAX  =           4
   number of lm-projection operators is LMMAX =           8

 Optimization of the real space projectors (new method)

 maximal supplied QI-value         = 16.25
 optimisation between [QCUT,QGAM] = [ 11.54, 23.24] = [ 37.28,151.24] Ry 
 Optimized for a Real-space Cutoff    1.53 Angstroem

   l    n(q)    QCUT    max X(q) W(low)/X(q) W(high)/X(q)  e(spline) 
   2     10    11.539     4.599    0.83E-05    0.15E-04    0.45E-07
   2     10    11.539    18.158    0.10E-03    0.14E-03    0.24E-06
   0     11    11.539    15.740    0.19E-04    0.12E-05    0.17E-07
   0     11    11.539    47.662    0.48E-04    0.15E-04    0.31E-06
   1     10    11.539     5.777    0.11E-04    0.46E-05    0.25E-07
   1     10    11.539     8.007    0.46E-04    0.29E-04    0.11E-06
 Optimization of the real space projectors (new method)

 maximal supplied QI-value         = 16.25
 optimisation between [QCUT,QGAM] = [ 11.54, 23.24] = [ 37.28,151.24] Ry 
 Optimized for a Real-space Cutoff    1.28 Angstroem

   l    n(q)    QCUT    max X(q) W(low)/X(q) W(high)/X(q)  e(spline) 
   0      9    11.539     8.651    0.22E-04    0.16E-04    0.10E-07
   0      9    11.539    33.192    0.11E-03    0.16E-03    0.65E-07
   1      8    11.539     5.899    0.37E-04    0.28E-04    0.43E-07
   1      8    11.539    27.289    0.22E-03    0.28E-04    0.14E-06
   2      8    11.539     4.673    0.11E-03    0.18E-03    0.58E-07
 Optimization of the real space projectors (new method)

 maximal supplied QI-value         = 19.84
 optimisation between [QCUT,QGAM] = [ 11.51, 23.22] = [ 37.09,150.92] Ry 
 Optimized for a Real-space Cutoff    1.21 Angstroem

   l    n(q)    QCUT    max X(q) W(low)/X(q) W(high)/X(q)  e(spline) 
   0      8    11.508     5.487    0.18E-04    0.22E-05    0.47E-08
   0      8    11.508    85.627    0.96E-04    0.18E-03    0.54E-07
   1      8    11.508     3.530    0.17E-04    0.28E-04    0.21E-07
   1      8    11.508    42.714    0.18E-03    0.63E-04    0.92E-07

 ----------------------------------------------------------------------------- 
|                                                                             |
|  ADVICE TO THIS USER RUNNING 'VASP/VAMP'   (HEAR YOUR MASTER'S VOICE ...):  |
|                                                                             |
|      You enforced a specific xc-type in the INCAR file,                     |
|      a different type was found on the POTCAR file                          |
|          I HOPE YOU KNOW, WHAT YOU ARE  DOING                               |
|                                                                             |
 ----------------------------------------------------------------------------- 

 PAW_PBE Co 06Sep2000                   :
 energy of atom  1       EATOM= -813.5563
 kinetic energy error for atom=    0.0028 (will be added to EATOM!!)
 PAW_PBE Ge 05Jan2001                   :
 energy of atom  2       EATOM= -104.9960
 kinetic energy error for atom=    0.0002 (will be added to EATOM!!)
  PAW_PBE S 17Jan2003                   :
 energy of atom  3       EATOM= -276.8230
 kinetic energy error for atom=    0.0016 (will be added to EATOM!!)


 POSCAR: Co2 Ge2 S6                              
  positions in direct lattice
  velocities in cartesian coordinates
  No initial velocities read in
 exchange correlation table for  LEXCH =       42
   RHO(1)=    0.500       N(1)  =     2000
   RHO(2)=  100.500       N(2)  =     4000



--------------------------------------------------------------------------------------------------------


 ion  position               nearest neighbor table
   1  0.333  0.333  0.500-   6 2.78   5 2.78   7 2.78   8 2.78  10 2.78   9 2.78
   2  0.667  0.667  0.500-   9 2.78   8 2.78  10 2.78   5 2.78   7 2.78   6 2.78
   3  0.000  0.000  0.448-   4 2.43   8 2.63  10 2.63   9 2.63
   4  0.000  0.000  0.552-   3 2.43   5 2.63   7 2.63   6 2.63
   5  0.626  0.000  0.574-   4 2.63   1 2.78   2 2.78
   6  0.000  0.373  0.574-   4 2.63   1 2.78   2 2.78
   7  0.373  0.626  0.574-   4 2.63   1 2.78   2 2.78
   8  0.374  1.000  0.426-   3 2.63   2 2.78   1 2.78
   9  1.000  0.627  0.426-   3 2.63   2 2.78   1 2.78
  10  0.627  0.374  0.426-   3 2.63   2 2.78   1 2.78

  LATTYP: Found a hexagonal cell.
 ALAT       =     6.9077769333
 C/A-ratio  =     3.3939410937
  
  Lattice vectors:
  
 A1 = (   3.4538890000,  -5.9823100000,   0.0000000000)
 A2 = (  -6.9077770000,   0.0000000000,   0.0000000000)
 A3 = (   0.0000000000,   0.0000000000, -23.4445880000)


Analysis of symmetry for initial positions (statically):
=====================================================================
 Subroutine PRICEL returns:
 Original cell was already a primitive cell.
 

 Routine SETGRP: Setting up the symmetry group for a 
 hexagonal supercell.


 Subroutine GETGRP returns: Found  6 space group operations
 (whereof  6 operations were pure point group operations)
 out of a pool of 24 trial point group operations.


The static configuration has the point symmetry S_6 .


Analysis of symmetry for dynamics (positions and initial velocities):
=====================================================================
 Subroutine PRICEL returns:
 Original cell was already a primitive cell.
 

 Routine SETGRP: Setting up the symmetry group for a 
 hexagonal supercell.


 Subroutine GETGRP returns: Found  6 space group operations
 (whereof  6 operations were pure point group operations)
 out of a pool of 24 trial point group operations.


The dynamic configuration has the point symmetry S_6 .


Analysis of constrained symmetry for selective dynamics:
=====================================================================
 Subroutine PRICEL returns:
 Original cell was already a primitive cell.
 

 Routine SETGRP: Setting up the symmetry group for a 
 hexagonal supercell.


 Subroutine GETGRP returns: Found  6 space group operations
 (whereof  6 operations were pure point group operations)
 out of a pool of 24 trial point group operations.


The constrained configuration has the point symmetry S_6 .


Analysis of structural, dynamic, and magnetic symmetry:
=====================================================================
 Subroutine PRICEL returns:
 Original cell was already a primitive cell.
 

 Routine SETGRP: Setting up the symmetry group for a 
 hexagonal supercell.


 Subroutine GETGRP returns: Found  6 space group operations
 (whereof  6 operations were pure point group operations)
 out of a pool of 24 trial point group operations.


The magnetic configuration has the point symmetry S_6 .


 Subroutine INISYM returns: Found  6 space group operations
 (whereof  6 operations are pure point group operations),
 and found     1 'primitive' translations



 KPOINTS: Kpoints from vasprun.xml                

Automatic generation of k-mesh.
Space group operators:
 irot       det(A)        alpha          n_x          n_y          n_z        tau_x        tau_y        tau_z
    1     1.000000     0.000000     1.000000     0.000000     0.000000     0.000000     0.000000     0.000000
    2    -1.000000     0.000000     1.000000     0.000000     0.000000     0.000000     0.000000     0.000000
    3     1.000000   120.000000     0.000000     0.000000     1.000000     0.000000     0.000000     0.000000
    4    -1.000000   120.000000     0.000000     0.000000     1.000000     0.000000     0.000000     0.000000
    5     1.000000   120.000000     0.000000     0.000000    -1.000000     0.000000     0.000000     0.000000
    6    -1.000000   120.000000     0.000000     0.000000    -1.000000     0.000000     0.000000     0.000000
 
 Subroutine IBZKPT returns following result:
 ===========================================
 
 Found      5 irreducible k-points:
 
 Following reciprocal coordinates:
            Coordinates               Weight
  0.000000  0.000000  0.000000      1.000000
  0.200000  0.000000  0.000000      6.000000
  0.400000  0.000000  0.000000      6.000000
  0.400000  0.200000  0.000000      6.000000
 -0.400000  0.200000  0.000000      6.000000
 
 Following cartesian coordinates:
            Coordinates               Weight
  0.000000  0.000000  0.000000      1.000000
  0.028953 -0.016716  0.000000      6.000000
  0.057906 -0.033432  0.000000      6.000000
  0.057906  0.000000  0.000000      6.000000
 -0.057906  0.066864  0.000000      6.000000
 
 TETIRR: Found     15 inequivalent tetrahedra from      150


--------------------------------------------------------------------------------------------------------




 Dimension of arrays:
   k-points           NKPTS =      5   k-points in BZ     NKDIM =      5   number of bands    NBANDS=     48
   number of dos      NEDOS =    301   number of ions     NIONS =     10
   non local maximal  LDIM  =      6   non local SUM 2l+1 LMDIM =     18
   total plane-waves  NPLWV = 524880
   max r-space proj   IRMAX =   8238   max aug-charges    IRDMAX=  29641
   dimension x,y,z NGX =    54 NGY =   54 NGZ =  180
   dimension x,y,z NGXF=   108 NGYF=  108 NGZF=  360
   support grid    NGXF=   108 NGYF=  108 NGZF=  360
   ions per type =               2   2   6
   NGX,Y,Z   is equivalent  to a cutoff of  13.00, 13.00, 12.76 a.u.
   NGXF,Y,Z  is equivalent  to a cutoff of  25.99, 25.99, 25.53 a.u.

 SYSTEM =  unknown system                          
 POSCAR =  Co2 Ge2 S6                              

 Startparameter for this run:
   NWRITE =      2    write-flag & timer
   PREC   = accura    normal or accurate (medium, high low for compatibility)
   ISTART =      0    job   : 0-new  1-cont  2-samecut
   ICHARG =      2    charge: 1-file 2-atom 10-const
   ISPIN  =      2    spin polarized calculation?
   LNONCOLLINEAR =      F non collinear calculations
   LSORBIT =      F    spin-orbit coupling
   INIWAV =      1    electr: 0-lowe 1-rand  2-diag
   LASPH  =      F    aspherical Exc in radial PAW
   METAGGA=      F    non-selfconsistent MetaGGA calc.

 Electronic Relaxation 1
   ENCUT  =  520.0 eV  38.22 Ry    6.18 a.u.  12.84 12.84 43.59*2*pi/ulx,y,z
   ENINI  =  520.0     initial cutoff
   ENAUG  =  477.8 eV  augmentation charge cutoff
   NELM   =    400;   NELMIN=  2; NELMDL=  0     # of ELM steps 
   EDIFF  = 0.1E-03   stopping-criterion for ELM
   LREAL  =      T    real-space projection
   NLSPLINE    = F    spline interpolate recip. space projectors
   LCOMPAT=      F    compatible to vasp.4.4
   GGA_COMPAT  = T    GGA compatible to vasp.4.4-vasp.4.6
   LMAXPAW     = -100 max onsite density
   LMAXMIX     =    2 max onsite mixed and CHGCAR
   VOSKOWN=      0    Vosko Wilk Nusair interpolation
   ROPT   =   -0.00025  -0.00025  -0.00025
 Ionic relaxation
   EDIFFG = 0.1E-02   stopping-criterion for IOM
   NSW    =     99    number of steps for IOM
   NBLOCK =      1;   KBLOCK =     99    inner block; outer block 
   IBRION =      2    ionic relax: 0-MD 1-quasi-New 2-CG
   NFREE  =      1    steps in history (QN), initial steepest desc. (CG)
   ISIF   =      3    stress and relaxation
   IWAVPR =     11    prediction:  0-non 1-charg 2-wave 3-comb
   ISYM   =      2    0-nonsym 1-usesym 2-fastsym
   LCORR  =      T    Harris-Foulkes like correction to forces

   POTIM  = 0.5000    time-step for ionic-motion
   TEIN   =    0.0    initial temperature
   TEBEG  =    0.0;   TEEND  =   0.0 temperature during run
   SMASS  =  -3.00    Nose mass-parameter (am)
   estimated Nose-frequenzy (Omega)   =  0.10E-29 period in steps =****** mass=  -0.109E-26a.u.
   SCALEE = 1.0000    scale energy and forces
   NPACO  =    256;   APACO  = 16.0  distance and # of slots for P.C.
   PSTRESS=    0.0 pullay stress

  Mass of Ions in am
   POMASS =  58.93 72.61 32.07
  Ionic Valenz
   ZVAL   =   9.00  4.00  6.00
  Atomic Wigner-Seitz radii
   RWIGS  =  -1.00 -1.00 -1.00
  virtual crystal weights 
   VCA    =   1.00  1.00  1.00
   NELECT =      62.0000    total number of electrons
   NUPDOWN=      -1.0000    fix difference up-down

 DOS related values:
   EMIN   =  10.00;   EMAX   =-10.00  energy-range for DOS
   EFERMI =   0.00
   ISMEAR =    -5;   SIGMA  =   0.05  broadening in eV -4-tet -1-fermi 0-gaus

 Electronic relaxation 2 (details)
   IALGO  =     38    algorithm
   LDIAG  =      T    sub-space diagonalisation (order eigenvalues)
   LSUBROT=      F    optimize rotation matrix (better conditioning)
   TURBO    =      0    0=normal 1=particle mesh
   IRESTART =      0    0=no restart 2=restart with 2 vectors
   NREBOOT  =      0    no. of reboots
   NMIN     =      0    reboot dimension
   EREF     =   0.00    reference energy to select bands
   IMIX   =      4    mixing-type and parameters
     AMIX     =   0.40;   BMIX     =  1.00
     AMIX_MAG =   1.60;   BMIX_MAG =  1.00
     AMIN     =   0.01
     WC   =   100.;   INIMIX=   1;  MIXPRE=   1;  MAXMIX= -45

 Intra band minimization:
   WEIMIN = 0.0010     energy-eigenvalue tresh-hold
   EBREAK =  0.52E-06  absolut break condition
   DEPER  =   0.30     relativ break condition  

   TIME   =   0.40     timestep for ELM

  volume/ion in A,a.u.               =      96.88       653.80
  Fermi-wavevector in a.u.,A,eV,Ry     =   0.654820  1.237431  5.834037  0.428790
  Thomas-Fermi vector in A             =   1.725500

 Write flags
   LWAVE        =      F    write WAVECAR
   LDOWNSAMPLE  =      F    k-point downsampling of WAVECAR
   LCHARG       =      T    write CHGCAR
   LVTOT        =      F    write LOCPOT, total local potential
   LVHAR        =      F    write LOCPOT, Hartree potential only
   LELF         =      F    write electronic localiz. function (ELF)
   LORBIT       =     11    0 simple, 1 ext, 2 COOP (PROOUT), +10 PAW based schemes


 Dipole corrections
   LMONO  =      F    monopole corrections only (constant potential shift)
   LDIPOL =      F    correct potential (dipole corrections)
   IDIPOL =      0    1-x, 2-y, 3-z, 4-all directions 
   EPSILON=  1.0000000 bulk dielectric constant

 Exchange correlation treatment:
   GGA     =    BO    GGA type
   LEXCH   =    42    internal setting for exchange type
   VOSKOWN=      0    Vosko Wilk Nusair interpolation
   LHFCALC =     F    Hartree Fock is set to
   LHFONE  =     F    Hartree Fock one center treatment
   AEXX    =    0.0000 exact exchange contribution

 vdW DFT:
   LUSE_VDW   =     T    switch on vdW DFT
   Zab_VDW    =-.8491    correlation parameter
   PARAM1     =0.1833
   PARAM2     =0.2200
   PARAM3     =0.0000
   -- rVV10 --
   BPARAM     = 6.3000
   CPARAM     = 0.0093

 Linear response parameters
   LEPSILON=     F    determine dielectric tensor
   LRPA    =     F    only Hartree local field effects (RPA)
   LNABLA  =     F    use nabla operator in PAW spheres
   LVEL    =     F    velocity operator in full k-point grid
   LINTERFAST=   F  fast interpolation
   KINTER  =     0    interpolate to denser k-point grid
   CSHIFT  =0.1000    complex shift for real part using Kramers Kronig
   OMEGAMAX=  -1.0    maximum frequency
   DEG_THRESHOLD= 0.2000000E-02 threshold for treating states as degnerate
   RTIME   =   -0.100 relaxation time in fs
  (WPLASMAI=    0.000 imaginary part of plasma frequency in eV, 0.658/RTIME)
   DFIELD  = 0.0000000 0.0000000 0.0000000 field for delta impulse in time

 Orbital magnetization related:
   ORBITALMAG=     F  switch on orbital magnetization
   LCHIMAG   =     F  perturbation theory with respect to B field
   DQ        =  0.001000  dq finite difference perturbation B field
   LLRAUG    =     F  two centre corrections for induced B field



--------------------------------------------------------------------------------------------------------


 conjugate gradient relaxation of ions
   using selective dynamics as specified on POSCAR
 charge density and potential will be updated during run
 spin polarized calculation
 Variant of blocked Davidson
 Davidson routine will perform the subspace rotation
 perform sub-space diagonalisation
    after iterative eigenvector-optimisation
 modified Broyden-mixing scheme, WC =      100.0
 initial mixing is a Kerker type mixing with AMIX =  0.4000 and BMIX =      1.0000
 Hartree-type preconditioning will be used
 using additional bands           17
 real space projection scheme for non local part
 use partial core corrections
 calculate Harris-corrections to forces   (improved forces if not selfconsistent)
 use gradient corrections 
 use of overlap-Matrix (Vanderbilt PP)
 Fermi weights with tetrahedron method with Bloechl corrections


--------------------------------------------------------------------------------------------------------


  energy-cutoff  :      520.00
  volume of cell :      968.84
      direct lattice vectors                 reciprocal lattice vectors
     6.907777000 -0.000000000  0.000000000     0.144764372 -0.083579742  0.000000000
     3.453888000  5.982310000  0.000000000     0.000000000  0.167159509 -0.000000000
     0.000000000  0.000000000 23.444588000    -0.000000000  0.000000000  0.042653767

  length of vectors
     6.907777000  6.907776433 23.444588000     0.167159495  0.167159509  0.042653767



 k-points in units of 2pi/SCALE and weight: Kpoints from vasprun.xml                
   0.00000000  0.00000000  0.00000000       0.040
   0.02895287 -0.01671595  0.00000000       0.240
   0.05790575 -0.03343190  0.00000000       0.240
   0.05790575  0.00000000  0.00000000       0.240
  -0.05790575  0.06686380  0.00000000       0.240

 k-points in reciprocal lattice and weights: Kpoints from vasprun.xml                
   0.00000000  0.00000000  0.00000000       0.040
   0.20000000  0.00000000  0.00000000       0.240
   0.40000000  0.00000000  0.00000000       0.240
   0.40000000  0.20000000  0.00000000       0.240
  -0.40000000  0.20000000  0.00000000       0.240

 position of ions in fractional coordinates (direct lattice) 
   0.33333300  0.33333300  0.49992500
   0.66666700  0.66666700  0.50007500
   0.00000000  0.00000000  0.44821600
   0.00000000  0.00000000  0.55178400
   0.62635700  0.00042000  0.57375200
   0.00042000  0.37322400  0.57375200
   0.37322400  0.62635700  0.57375200
   0.37364300  0.99958000  0.42624800
   0.99958000  0.62677600  0.42624800
   0.62677600  0.37364300  0.42624800

 position of ions in cartesian coordinates  (Angst):
   3.45388488  1.99410134 11.72053566
   6.90778012  3.98820866 11.72405234
   0.00000000  0.00000000 10.50823946
   0.00000000  0.00000000 12.93634854
   4.32818511  0.00251257 13.45137925
   1.29197516  2.23274167 13.45137925
   4.74151509  3.74706174 13.45137925
   6.03347989  5.97979743  9.99320875
   9.06968984  3.74956833  9.99320875
   5.62014991  2.23524826  9.99320875



--------------------------------------------------------------------------------------------------------


 k-point  1 :   0.0000 0.0000 0.0000  plane waves:   26073
 k-point  2 :   0.2000 0.0000 0.0000  plane waves:   26070
 k-point  3 :   0.4000 0.0000 0.0000  plane waves:   26086
 k-point  4 :   0.4000 0.2000 0.0000  plane waves:   26085
 k-point  5 :  -0.4000 0.2000 0.0000  plane waves:   26115

 maximum and minimum number of plane-waves per node :     26115    26070

 maximum number of plane-waves:     26115
 maximum index in each direction: 
   IXMAX=   13   IYMAX=   12   IZMAX=   43
   IXMIN=  -13   IYMIN=  -13   IZMIN=  -43


 serial   3D FFT for wavefunctions
 parallel 3D FFT for charge:
    minimum data exchange during FFTs selected (reduces bandwidth)


 total amount of memory used by VASP MPI-rank0   126930. kBytes
=======================================================================

   base      :      30000. kBytes
   nonlr-proj:       6635. kBytes
   fftplans  :      11247. kBytes
   grid      :      66142. kBytes
   one-center:        311. kBytes
   wavefun   :      12595. kBytes

     INWAV:  cpu time    0.0000: real time    0.0004
 Broyden mixing: mesh for mixing (old mesh)
   NGX = 25   NGY = 25   NGZ = 87
  (NGX  =108   NGY  =108   NGZ  =360)
  gives a total of  54375 points

 initial charge density was supplied:
 charge density of overlapping atoms calculated
 number of electron      62.0000000 magnetization       9.7800000
 keeping initial charge density in first step


--------------------------------------------------------------------------------------------------------


 Maximum index for non-local projection operator         7925
 Maximum index for augmentation-charges         2133 (set IRDMAX)


--------------------------------------------------------------------------------------------------------


 First call to EWALD:  gamma=   0.179
 Maximum number of real-space cells 4x 4x 1
 Maximum number of reciprocal cells 2x 2x 6

    FEWALD:  cpu time    0.0000: real time    0.0014


--------------------------------------- Iteration      1(   1)  ---------------------------------------


vdW kernel read from vdw_kernel.bindat
  0.0000  0.2424  0.5071  0.7962  1.1119  1.4567  1.8333  2.2446  2.6937  3.1842
  3.7199  4.3049  4.9438  5.6415  6.4036  7.2358  8.1446  9.1372 10.2212 11.4050
 12.6979 14.1099 15.6519 17.3360 19.1751 21.1837 23.3773 25.7729 28.3892 31.2465
 34.3669 37.7748 41.4965 45.5611 50.0000

    POTLOK:  cpu time   52.4680: real time   53.2965
    SETDIJ:  cpu time    0.0440: real time    0.0438
     EDDAV:  cpu time   22.6400: real time   22.8312
 BZINTS: Fermi energy:  4.687057; 62.000000 electrons
         Band energy: -35.050567;  BLOECHL correction: -0.028957
       DOS:  cpu time    0.0040: real time    0.0067
    --------------------------------------------
      LOOP:  cpu time   75.1560: real time   76.1782

 eigenvalue-minimisations  :   960
 total energy-change (2. order) : 0.4171420E+03  (-0.1878332E+04)
 number of electron      62.0000000 magnetization       9.7800000
 augmentation part       62.0000000 magnetization       9.7800000

 Free energy of the ion-electron system (eV)
  ---------------------------------------------------
  alpha Z        PSCENC =        28.51252143
  Ewald energy   TEWEN  =      7529.91642125
  -Hartree energ DENC   =    -10648.33932195
  -exchange      EXHF   =         0.00000000
  -V(xc)+E(xc)   XCENC  =        82.47763415
  PAW double counting   =      1944.90076237    -1997.71996792
  entropy T*S    EENTRO =         0.00000000
  eigenvalues    EBANDS =       -35.05056702
  atomic energy  EATOM  =      3512.44449572
  Solvation  Ediel_sol  =         0.00000000
  ---------------------------------------------------
  free energy    TOTEN  =       417.14197803 eV

  energy without entropy =      417.14197803  energy(sigma->0) =      417.14197803


--------------------------------------------------------------------------------------------------------




--------------------------------------- Iteration      1(   2)  ---------------------------------------


     EDDAV:  cpu time   29.4320: real time   30.3380
 BZINTS: Fermi energy: -1.678814; 61.975608 electrons
         Band energy:-417.069625;  BLOECHL correction: -0.025471
       DOS:  cpu time    0.0040: real time    0.0064
    --------------------------------------------
      LOOP:  cpu time   29.4360: real time   30.3444

 eigenvalue-minimisations  :  1312
 total energy-change (2. order) :-0.3820191E+03  (-0.3513796E+03)
 number of electron      62.0000000 magnetization       9.7800000
 augmentation part       62.0000000 magnetization       9.7800000

 Free energy of the ion-electron system (eV)
  ---------------------------------------------------
  alpha Z        PSCENC =        28.51252143
  Ewald energy   TEWEN  =      7529.91642125
  -Hartree energ DENC   =    -10648.33932195
  -exchange      EXHF   =         0.00000000
  -V(xc)+E(xc)   XCENC  =        82.47763415
  PAW double counting   =      1944.90076237    -1997.71996792
  entropy T*S    EENTRO =         0.00000000
  eigenvalues    EBANDS =      -417.06962454
  atomic energy  EATOM  =      3512.44449572
  Solvation  Ediel_sol  =         0.00000000
  ---------------------------------------------------
  free energy    TOTEN  =        35.12292052 eV

  energy without entropy =       35.12292052  energy(sigma->0) =       35.12292052


--------------------------------------------------------------------------------------------------------




--------------------------------------- Iteration      1(   3)  ---------------------------------------


     EDDAV:  cpu time   27.3160: real time   28.1668
 BZINTS: Fermi energy: -3.059500; 62.000000 electrons
         Band energy:-498.024235;  BLOECHL correction: -0.000823
       DOS:  cpu time    0.0200: real time    0.0208
    --------------------------------------------
      LOOP:  cpu time   27.3360: real time   28.1876

 eigenvalue-minimisations  :  1216
 total energy-change (2. order) :-0.8095461E+02  (-0.7731111E+02)
 number of electron      62.0000000 magnetization       9.7800000
 augmentation part       62.0000000 magnetization       9.7800000

 Free energy of the ion-electron system (eV)
  ---------------------------------------------------
  alpha Z        PSCENC =        28.51252143
  Ewald energy   TEWEN  =      7529.91642125
  -Hartree energ DENC   =    -10648.33932195
  -exchange      EXHF   =         0.00000000
  -V(xc)+E(xc)   XCENC  =        82.47763415
  PAW double counting   =      1944.90076237    -1997.71996792
  entropy T*S    EENTRO =         0.00000000
  eigenvalues    EBANDS =      -498.02423472
  atomic energy  EATOM  =      3512.44449572
  Solvation  Ediel_sol  =         0.00000000
  ---------------------------------------------------
  free energy    TOTEN  =       -45.83168966 eV

  energy without entropy =      -45.83168966  energy(sigma->0) =      -45.83168966


--------------------------------------------------------------------------------------------------------




--------------------------------------- Iteration      1(   4)  ---------------------------------------


     EDDAV:  cpu time   28.6880: real time   28.9105
 BZINTS: Fermi energy: -3.095331; 62.000000 electrons
         Band energy:-501.443260;  BLOECHL correction:  0.000000
       DOS:  cpu time    0.0000: real time    0.0025
    --------------------------------------------
      LOOP:  cpu time   28.6880: real time   28.9130

 eigenvalue-minimisations  :  1248
 total energy-change (2. order) :-0.3419025E+01  (-0.3386298E+01)
 number of electron      62.0000000 magnetization       9.7800000
 augmentation part       62.0000000 magnetization       9.7800000

 Free energy of the ion-electron system (eV)
  ---------------------------------------------------
  alpha Z        PSCENC =        28.51252143
  Ewald energy   TEWEN  =      7529.91642125
  -Hartree energ DENC   =    -10648.33932195
  -exchange      EXHF   =         0.00000000
  -V(xc)+E(xc)   XCENC  =        82.47763415
  PAW double counting   =      1944.90076237    -1997.71996792
  entropy T*S    EENTRO =         0.00000000
  eigenvalues    EBANDS =      -501.44325958
  atomic energy  EATOM  =      3512.44449572
  Solvation  Ediel_sol  =         0.00000000
  ---------------------------------------------------
  free energy    TOTEN  =       -49.25071452 eV

  energy without entropy =      -49.25071452  energy(sigma->0) =      -49.25071452


--------------------------------------------------------------------------------------------------------




--------------------------------------- Iteration      1(   5)  ---------------------------------------


     EDDAV:  cpu time   29.6480: real time   30.0975
 BZINTS: Fermi energy: -3.095369; 62.000000 electrons
         Band energy:-501.551293;  BLOECHL correction: -0.000000
       DOS:  cpu time    0.0040: real time    0.0052
    CHARGE:  cpu time    1.9600: real time    2.0468
    MIXING:  cpu time    0.0560: real time    0.0562
    --------------------------------------------
      LOOP:  cpu time   31.6680: real time   32.2058

 eigenvalue-minimisations  :  1312
 total energy-change (2. order) :-0.1080331E+00  (-0.1079961E+00)
 number of electron      61.9999990 magnetization       9.8035881
 augmentation part       -0.0858881 magnetization       6.1312728

 Broyden mixing:
  rms(total) = 0.36188E+01    rms(broyden)= 0.36188E+01
  rms(prec ) = 0.38896E+01
  weight for this iteration     100.00

 Free energy of the ion-electron system (eV)
  ---------------------------------------------------
  alpha Z        PSCENC =        28.51252143
  Ewald energy   TEWEN  =      7529.91642125
  -Hartree energ DENC   =    -10648.33932195
  -exchange      EXHF   =         0.00000000
  -V(xc)+E(xc)   XCENC  =        82.47763415
  PAW double counting   =      1944.90076237    -1997.71996792
  entropy T*S    EENTRO =         0.00000000
  eigenvalues    EBANDS =      -501.55129268
  atomic energy  EATOM  =      3512.44449572
  Solvation  Ediel_sol  =         0.00000000
  ---------------------------------------------------
  free energy    TOTEN  =       -49.35874762 eV

  energy without entropy =      -49.35874762  energy(sigma->0) =      -49.35874762


--------------------------------------------------------------------------------------------------------




--------------------------------------- Iteration      1(   6)  ---------------------------------------


    POTLOK:  cpu time   52.8360: real time   53.0290
    SETDIJ:  cpu time    0.0440: real time    0.0440
     EDDAV:  cpu time   31.3560: real time   32.0871
 BZINTS: Fermi energy: -4.605073; 62.000000 electrons
         Band energy:-737.217644;  BLOECHL correction: -0.016612
       DOS:  cpu time    0.0040: real time    0.0059
    CHARGE:  cpu time    2.0720: real time    2.0729
    MIXING:  cpu time    0.0400: real time    0.0413
    --------------------------------------------
      LOOP:  cpu time   86.3520: real time   87.2802

 eigenvalue-minimisations  :  1344
 total energy-change (2. order) :-0.6236409E+02  (-0.7139179E+02)
 number of electron      61.9999982 magnetization       9.4341422
 augmentation part       10.0681741 magnetization       9.6121023

 Broyden mixing:
  rms(total) = 0.67526E+01    rms(broyden)= 0.67525E+01
  rms(prec ) = 0.70932E+01
  weight for this iteration     100.00

 eigenvalues of (default mixing * dielectric matrix)
  average eigenvalue GAMMA=   0.3264
  0.3264

 Free energy of the ion-electron system (eV)
  ---------------------------------------------------
  alpha Z        PSCENC =        28.51252143
  Ewald energy   TEWEN  =      7529.91642125
  -Hartree energ DENC   =    -10513.14735039
  -exchange      EXHF   =         0.00000000
  -V(xc)+E(xc)   XCENC  =        87.83961986
  PAW double counting   =      1699.94339705    -1720.01429377
  entropy T*S    EENTRO =         0.00000000
  eigenvalues    EBANDS =      -737.21764390
  atomic energy  EATOM  =      3512.44449572
  Solvation  Ediel_sol  =         0.00000000
  ---------------------------------------------------
  free energy    TOTEN  =      -111.72283275 eV

  energy without entropy =     -111.72283275  energy(sigma->0) =     -111.72283275


--------------------------------------------------------------------------------------------------------




--------------------------------------- Iteration      1(   7)  ---------------------------------------


    POTLOK:  cpu time   52.9600: real time   53.0313
    SETDIJ:  cpu time    0.0400: real time    0.0400
     EDDAV:  cpu time   25.8880: real time   26.4414
 BZINTS: Fermi energy: -4.926401; 62.000000 electrons
         Band energy:-567.084766;  BLOECHL correction: -0.030390
       DOS:  cpu time    0.0040: real time    0.0073
    CHARGE:  cpu time    2.0520: real time    2.0863
    MIXING:  cpu time    0.0240: real time    0.0519
    --------------------------------------------
      LOOP:  cpu time   80.9680: real time   81.6582

 eigenvalue-minimisations  :  1136
 total energy-change (2. order) : 0.6389559E+02  (-0.7851311E+01)
 number of electron      61.9999984 magnetization       9.1414427
 augmentation part        8.4024389 magnetization       8.6007214

 Broyden mixing:
  rms(total) = 0.37530E+01    rms(broyden)= 0.37530E+01
  rms(prec ) = 0.40079E+01
  weight for this iteration     100.00

 eigenvalues of (default mixing * dielectric matrix)
  average eigenvalue GAMMA=   0.4408
  0.4408  0.4408

 Free energy of the ion-electron system (eV)
  ---------------------------------------------------
  alpha Z        PSCENC =        28.51252143
  Ewald energy   TEWEN  =      7529.91642125
  -Hartree energ DENC   =    -10588.37099796
  -exchange      EXHF   =         0.00000000
  -V(xc)+E(xc)   XCENC  =        82.88391404
  PAW double counting   =      1844.24381123    -1890.37264197
  entropy T*S    EENTRO =         0.00000000
  eigenvalues    EBANDS =      -567.08476581
  atomic energy  EATOM  =      3512.44449572
  Solvation  Ediel_sol  =         0.00000000
  ---------------------------------------------------
  free energy    TOTEN  =       -47.82724208 eV

  energy without entropy =      -47.82724208  energy(sigma->0) =      -47.82724208


--------------------------------------------------------------------------------------------------------




--------------------------------------- Iteration      1(   8)  ---------------------------------------


    POTLOK:  cpu time   52.8560: real time   53.0233
    SETDIJ:  cpu time    0.0440: real time    0.0429
     EDDAV:  cpu time   30.3520: real time   30.7844
 BZINTS: Fermi energy: -4.208004; 61.975239 electrons
         Band energy:-514.933443;  BLOECHL correction: -0.000535
       DOS:  cpu time    0.0080: real time    0.0064
    CHARGE:  cpu time    2.0240: real time    2.0982
    MIXING:  cpu time    0.0600: real time    0.0686
    --------------------------------------------
      LOOP:  cpu time   85.3440: real time   86.0239

 eigenvalue-minimisations  :  1312
 total energy-change (2. order) : 0.1076359E+02  (-0.2183960E+01)
 number of electron      61.9752373 magnetization       9.0646571
 augmentation part        3.0511541 magnetization       5.8533453

 Broyden mixing:
  rms(total) = 0.12741E+01    rms(broyden)= 0.12739E+01
  rms(prec ) = 0.13312E+01
  weight for this iteration     100.00

 eigenvalues of (default mixing * dielectric matrix)
  average eigenvalue GAMMA=   0.4458
  0.5688  0.3843  0.3843

 Free energy of the ion-electron system (eV)
  ---------------------------------------------------
  alpha Z        PSCENC =        28.51252143
  Ewald energy   TEWEN  =      7529.91642125
  -Hartree energ DENC   =    -10622.94237636
  -exchange      EXHF   =         0.00000000
  -V(xc)+E(xc)   XCENC  =        82.93216793
  PAW double counting   =      1907.61890961    -1960.61235080
  entropy T*S    EENTRO =         0.00000000
  eigenvalues    EBANDS =      -514.93344329
  atomic energy  EATOM  =      3512.44449572
  Solvation  Ediel_sol  =         0.00000000
  ---------------------------------------------------
  free energy    TOTEN  =       -37.06365451 eV

  energy without entropy =      -37.06365451  energy(sigma->0) =      -37.06365451


--------------------------------------------------------------------------------------------------------




--------------------------------------- Iteration      1(   9)  ---------------------------------------


    POTLOK:  cpu time   52.0280: real time   52.6126
    SETDIJ:  cpu time    0.0480: real time    0.0464
     EDDAV:  cpu time   30.4440: real time   31.1384
 BZINTS: Fermi energy: -4.862728; 62.000000 electrons
         Band energy:-532.774995;  BLOECHL correction: -0.018559
       DOS:  cpu time    0.0080: real time    0.0074
    CHARGE:  cpu time    2.0520: real time    2.0744
    MIXING:  cpu time    0.0400: real time    0.0427
    --------------------------------------------
      LOOP:  cpu time   84.6200: real time   85.9219

 eigenvalue-minimisations  :  1360
 total energy-change (2. order) :-0.1356112E+01  (-0.9871776E+00)
 number of electron      61.9999985 magnetization       8.8801408
 augmentation part        6.2993621 magnetization       8.4822430

 Broyden mixing:
  rms(total) = 0.21499E+01    rms(broyden)= 0.21498E+01
  rms(prec ) = 0.22669E+01
  weight for this iteration     100.00

 eigenvalues of (default mixing * dielectric matrix)
  average eigenvalue GAMMA=   0.4247
  0.5887  0.4390  0.4390  0.2322

 Free energy of the ion-electron system (eV)
  ---------------------------------------------------
  alpha Z        PSCENC =        28.51252143
  Ewald energy   TEWEN  =      7529.91642125
  -Hartree energ DENC   =    -10608.25912798
  -exchange      EXHF   =         0.00000000
  -V(xc)+E(xc)   XCENC  =        83.07915098
  PAW double counting   =      1881.65596990    -1932.99420369
  entropy T*S    EENTRO =         0.00000000
  eigenvalues    EBANDS =      -532.77499454
  atomic energy  EATOM  =      3512.44449572
  Solvation  Ediel_sol  =         0.00000000
  ---------------------------------------------------
  free energy    TOTEN  =       -38.41976692 eV

  energy without entropy =      -38.41976692  energy(sigma->0) =      -38.41976692


--------------------------------------------------------------------------------------------------------




--------------------------------------- Iteration      1(  10)  ---------------------------------------


    POTLOK:  cpu time   52.3800: real time   52.6299
    SETDIJ:  cpu time    0.0800: real time    0.0783
     EDDAV:  cpu time   31.2240: real time   31.8308
 BZINTS: Fermi energy: -4.752469; 62.000000 electrons
         Band energy:-527.776557;  BLOECHL correction: -0.012399
       DOS:  cpu time    0.0080: real time    0.0067
    CHARGE:  cpu time    1.8680: real time    2.1229
    MIXING:  cpu time    0.0440: real time    0.0442
    --------------------------------------------
      LOOP:  cpu time   85.6040: real time   86.7128

 eigenvalue-minimisations  :  1392
 total energy-change (2. order) : 0.7104712E+00  (-0.7143536E-01)
 number of electron      61.9999985 magnetization       8.8806490
 augmentation part        5.4183036 magnetization       8.0662780

 Broyden mixing:
  rms(total) = 0.13110E+01    rms(broyden)= 0.13110E+01
  rms(prec ) = 0.13803E+01
  weight for this iteration     100.00

 eigenvalues of (default mixing * dielectric matrix)
  average eigenvalue GAMMA=   0.3671
  0.6096  0.4359  0.4359  0.2542  0.1000

 Free energy of the ion-electron system (eV)
  ---------------------------------------------------
  alpha Z        PSCENC =        28.51252143
  Ewald energy   TEWEN  =      7529.91642125
  -Hartree energ DENC   =    -10612.14911007
  -exchange      EXHF   =         0.00000000
  -V(xc)+E(xc)   XCENC  =        83.03371733
  PAW double counting   =      1889.57431028    -1941.26509446
  entropy T*S    EENTRO =         0.00000000
  eigenvalues    EBANDS =      -527.77655716
  atomic energy  EATOM  =      3512.44449572
  Solvation  Ediel_sol  =         0.00000000
  ---------------------------------------------------
  free energy    TOTEN  =       -37.70929568 eV

  energy without entropy =      -37.70929568  energy(sigma->0) =      -37.70929568


--------------------------------------------------------------------------------------------------------




--------------------------------------- Iteration      1(  11)  ---------------------------------------


    POTLOK:  cpu time   53.2120: real time   53.6670
    SETDIJ:  cpu time    0.0440: real time    0.0426
     EDDAV:  cpu time   27.3160: real time   27.4561
 BZINTS: Fermi energy: -4.746403; 62.000000 electrons
         Band energy:-527.836985;  BLOECHL correction: -0.012492
       DOS:  cpu time    0.0040: real time    0.0073
    CHARGE:  cpu time    2.0280: real time    2.0770
    MIXING:  cpu time    0.0360: real time    0.0440
    --------------------------------------------
      LOOP:  cpu time   82.6400: real time   83.2940

 eigenvalue-minimisations  :  1184
 total energy-change (2. order) :-0.4146555E-01  (-0.3433816E-01)
 number of electron      61.9999985 magnetization       8.7582292
 augmentation part        5.3590631 magnetization       7.9182401

 Broyden mixing:
  rms(total) = 0.12696E+01    rms(broyden)= 0.12696E+01
  rms(prec ) = 0.13355E+01
  weight for this iteration     100.00

 eigenvalues of (default mixing * dielectric matrix)
  average eigenvalue GAMMA=   0.3544
  0.6018  0.4866  0.4866  0.2567  0.2567  0.0380

 Free energy of the ion-electron system (eV)
  ---------------------------------------------------
  alpha Z        PSCENC =        28.51252143
  Ewald energy   TEWEN  =      7529.91642125
  -Hartree energ DENC   =    -10612.14718732
  -exchange      EXHF   =         0.00000000
  -V(xc)+E(xc)   XCENC  =        83.03060775
  PAW double counting   =      1889.56667715    -1941.23731220
  entropy T*S    EENTRO =         0.00000000
  eigenvalues    EBANDS =      -527.83698501
  atomic energy  EATOM  =      3512.44449572
  Solvation  Ediel_sol  =         0.00000000
  ---------------------------------------------------
  free energy    TOTEN  =       -37.75076123 eV

  energy without entropy =      -37.75076123  energy(sigma->0) =      -37.75076123


--------------------------------------------------------------------------------------------------------




--------------------------------------- Iteration      1(  12)  ---------------------------------------


    POTLOK:  cpu time   50.4200: real time   51.4766
    SETDIJ:  cpu time    0.0440: real time    0.0440
     EDDAV:  cpu time   24.0840: real time   24.3092
 BZINTS: Fermi energy: -4.777289; 62.000000 electrons
         Band energy:-529.775006;  BLOECHL correction: -0.012137
       DOS:  cpu time    0.0040: real time    0.0095
    CHARGE:  cpu time    2.0400: real time    2.0628
    MIXING:  cpu time    0.0480: real time    0.0480
    --------------------------------------------
      LOOP:  cpu time   76.6400: real time   77.9501

 eigenvalue-minimisations  :  1056
 total energy-change (2. order) : 0.4680837E-01  (-0.5715767E-01)
 number of electron      61.9999985 magnetization       8.0436018
 augmentation part        5.4770914 magnetization       7.4715365

 Broyden mixing:
  rms(total) = 0.13989E+01    rms(broyden)= 0.13989E+01
  rms(prec ) = 0.14693E+01
  weight for this iteration     100.00

 eigenvalues of (default mixing * dielectric matrix)
  average eigenvalue GAMMA=   0.5708
  1.0429  1.0429  0.7883  0.3639  0.3639  0.3663  0.0274

 Free energy of the ion-electron system (eV)
  ---------------------------------------------------
  alpha Z        PSCENC =        28.51252143
  Ewald energy   TEWEN  =      7529.91642125
  -Hartree energ DENC   =    -10610.66185499
  -exchange      EXHF   =         0.00000000
  -V(xc)+E(xc)   XCENC  =        83.02234576
  PAW double counting   =      1887.38619922    -1938.54907567
  entropy T*S    EENTRO =         0.00000000
  eigenvalues    EBANDS =      -529.77500558
  atomic energy  EATOM  =      3512.44449572
  Solvation  Ediel_sol  =         0.00000000
  ---------------------------------------------------
  free energy    TOTEN  =       -37.70395286 eV

  energy without entropy =      -37.70395286  energy(sigma->0) =      -37.70395286


--------------------------------------------------------------------------------------------------------




--------------------------------------- Iteration      1(  13)  ---------------------------------------


    POTLOK:  cpu time   50.7960: real time   51.0941
    SETDIJ:  cpu time    0.0440: real time    0.0422
     EDDAV:  cpu time   30.1120: real time   31.1282
 BZINTS: Fermi energy: -4.742481; 62.000000 electrons
         Band energy:-529.991953;  BLOECHL correction: -0.005457
       DOS:  cpu time    0.0040: real time    0.0075
    CHARGE:  cpu time    2.0040: real time    2.0636
    MIXING:  cpu time    0.0640: real time    0.0652
    --------------------------------------------
      LOOP:  cpu time   83.0240: real time   84.4007

 eigenvalue-minimisations  :  1296
 total energy-change (2. order) : 0.3435631E+00  (-0.5012480E-01)
 number of electron      61.9999985 magnetization       7.2506963
 augmentation part        4.7320667 magnetization       6.3818383

 Broyden mixing:
  rms(total) = 0.80681E+00    rms(broyden)= 0.80676E+00
  rms(prec ) = 0.83224E+00
  weight for this iteration     100.00

 eigenvalues of (default mixing * dielectric matrix)
  average eigenvalue GAMMA=   0.7460
  1.6879  1.6879  0.7230  0.7230  0.3592  0.3592  0.4000  0.0274

 Free energy of the ion-electron system (eV)
  ---------------------------------------------------
  alpha Z        PSCENC =        28.51252143
  Ewald energy   TEWEN  =      7529.91642125
  -Hartree energ DENC   =    -10610.86448448
  -exchange      EXHF   =         0.00000000
  -V(xc)+E(xc)   XCENC  =        83.05850813
  PAW double counting   =      1889.97506157    -1940.41096004
  entropy T*S    EENTRO =         0.00000000
  eigenvalues    EBANDS =      -529.99195339
  atomic energy  EATOM  =      3512.44449572
  Solvation  Ediel_sol  =         0.00000000
  ---------------------------------------------------
  free energy    TOTEN  =       -37.36038979 eV

  energy without entropy =      -37.36038979  energy(sigma->0) =      -37.36038979


--------------------------------------------------------------------------------------------------------




--------------------------------------- Iteration      1(  14)  ---------------------------------------


    POTLOK:  cpu time   51.0760: real time   51.6067
    SETDIJ:  cpu time    0.0440: real time    0.0440
     EDDAV:  cpu time   31.7040: real time   31.9858
 BZINTS: Fermi energy: -4.367678; 62.000000 electrons
         Band energy:-524.128350;  BLOECHL correction:  0.000000
       DOS:  cpu time    0.0040: real time    0.0036
    CHARGE:  cpu time    2.0200: real time    2.0380
    MIXING:  cpu time    0.0480: real time    0.0456
    --------------------------------------------
      LOOP:  cpu time   84.8960: real time   85.7236

 eigenvalue-minimisations  :  1424
 total energy-change (2. order) :-0.3785730E+00  (-0.1196152E+00)
 number of electron      61.9999988 magnetization       7.3342266
 augmentation part        2.8385786 magnetization       4.3785374

 Broyden mixing:
  rms(total) = 0.12417E+01    rms(broyden)= 0.12416E+01
  rms(prec ) = 0.13169E+01
  weight for this iteration     100.00

 eigenvalues of (default mixing * dielectric matrix)
  average eigenvalue GAMMA=   0.6784
  1.8145  1.2546  0.8086  0.8086  0.3656  0.3656  0.3305  0.3305  0.0274

 Free energy of the ion-electron system (eV)
  ---------------------------------------------------
  alpha Z        PSCENC =        28.51252143
  Ewald energy   TEWEN  =      7529.91642125
  -Hartree energ DENC   =    -10616.52969656
  -exchange      EXHF   =         0.00000000
  -V(xc)+E(xc)   XCENC  =        83.05442732
  PAW double counting   =      1902.30464127    -1953.31342305
  entropy T*S    EENTRO =         0.00000000
  eigenvalues    EBANDS =      -524.12835016
  atomic energy  EATOM  =      3512.44449572
  Solvation  Ediel_sol  =         0.00000000
  ---------------------------------------------------
  free energy    TOTEN  =       -37.73896277 eV

  energy without entropy =      -37.73896277  energy(sigma->0) =      -37.73896277


--------------------------------------------------------------------------------------------------------




--------------------------------------- Iteration      1(  15)  ---------------------------------------


    POTLOK:  cpu time   51.1720: real time   51.3739
    SETDIJ:  cpu time    0.0480: real time    0.0460
     EDDAV:  cpu time   25.6080: real time   25.9108
 BZINTS: Fermi energy: -4.464255; 62.000000 electrons
         Band energy:-524.144332;  BLOECHL correction: -0.012584
       DOS:  cpu time    0.0080: real time    0.0072
    CHARGE:  cpu time    2.0320: real time    2.1154
    MIXING:  cpu time    0.0440: real time    0.0520
    --------------------------------------------
      LOOP:  cpu time   78.9120: real time   79.5053

 eigenvalue-minimisations  :  1120
 total energy-change (2. order) : 0.1222534E+00  (-0.3695470E-01)
 number of electron      61.9999987 magnetization       7.2683045
 augmentation part        3.3559433 magnetization       4.7979280

 Broyden mixing:
  rms(total) = 0.68391E+00    rms(broyden)= 0.68391E+00
  rms(prec ) = 0.73171E+00
  weight for this iteration     100.00

 eigenvalues of (default mixing * dielectric matrix)
  average eigenvalue GAMMA=   0.7496
  2.3217  0.9144  0.9144  1.0180  0.5725  0.5725  0.3597  0.3597  0.4360  0.0274

 Free energy of the ion-electron system (eV)
  ---------------------------------------------------
  alpha Z        PSCENC =        28.51252143
  Ewald energy   TEWEN  =      7529.91642125
  -Hartree energ DENC   =    -10615.92724265
  -exchange      EXHF   =         0.00000000
  -V(xc)+E(xc)   XCENC  =        83.07571480
  PAW double counting   =      1900.71980430    -1952.21409224
  entropy T*S    EENTRO =         0.00000000
  eigenvalues    EBANDS =      -524.14433198
  atomic energy  EATOM  =      3512.44449572
  Solvation  Ediel_sol  =         0.00000000
  ---------------------------------------------------
  free energy    TOTEN  =       -37.61670935 eV

  energy without entropy =      -37.61670935  energy(sigma->0) =      -37.61670935


--------------------------------------------------------------------------------------------------------




--------------------------------------- Iteration      1(  16)  ---------------------------------------


    POTLOK:  cpu time   50.2200: real time   51.8492
    SETDIJ:  cpu time    0.0760: real time    0.0784
     EDDAV:  cpu time   29.0560: real time   30.2764
 BZINTS: Fermi energy: -4.625414; 62.000000 electrons
         Band energy:-525.568318;  BLOECHL correction: -0.003370
       DOS:  cpu time    0.0080: real time    0.0078
    CHARGE:  cpu time    2.0200: real time    2.0696
    MIXING:  cpu time    0.0560: real time    0.0553
    --------------------------------------------
      LOOP:  cpu time   81.4360: real time   84.3366

 eigenvalue-minimisations  :  1328
 total energy-change (2. order) : 0.1051345E+00  (-0.3894233E-01)
 number of electron      61.9999986 magnetization       7.0599477
 augmentation part        4.0928152 magnetization       5.3054464

 Broyden mixing:
  rms(total) = 0.26392E+00    rms(broyden)= 0.26386E+00
  rms(prec ) = 0.26755E+00
  weight for this iteration     100.00

 eigenvalues of (default mixing * dielectric matrix)
  average eigenvalue GAMMA=   0.8019
  2.6325  1.1909  1.1909  0.8111  0.8111  0.3603  0.3603  0.5018  0.5018  0.4325
  0.0274

 Free energy of the ion-electron system (eV)
  ---------------------------------------------------
  alpha Z        PSCENC =        28.51252143
  Ewald energy   TEWEN  =      7529.91642125
  -Hartree energ DENC   =    -10614.19235193
  -exchange      EXHF   =         0.00000000
  -V(xc)+E(xc)   XCENC  =        83.04150837
  PAW double counting   =      1897.27788579    -1948.94373787
  entropy T*S    EENTRO =         0.00000000
  eigenvalues    EBANDS =      -525.56831764
  atomic energy  EATOM  =      3512.44449572
  Solvation  Ediel_sol  =         0.00000000
  ---------------------------------------------------
  free energy    TOTEN  =       -37.51157487 eV

  energy without entropy =      -37.51157487  energy(sigma->0) =      -37.51157487


--------------------------------------------------------------------------------------------------------




--------------------------------------- Iteration      1(  17)  ---------------------------------------


    POTLOK:  cpu time   50.8680: real time   51.4000
    SETDIJ:  cpu time    0.0320: real time    0.0326
     EDDAV:  cpu time   32.2680: real time   32.3735
 BZINTS: Fermi energy: -4.662604; 62.000000 electrons
         Band energy:-524.602136;  BLOECHL correction: -0.010037
       DOS:  cpu time    0.0040: real time    0.0075
    CHARGE:  cpu time    2.0680: real time    2.0793
    MIXING:  cpu time    0.0480: real time    0.0484
    --------------------------------------------
      LOOP:  cpu time   85.2880: real time   85.9414

 eigenvalue-minimisations  :  1440
 total energy-change (2. order) :-0.1275887E+00  (-0.1583095E-01)
 number of electron      61.9999985 magnetization       6.7463884
 augmentation part        4.4738104 magnetization       5.3891105

 Broyden mixing:
  rms(total) = 0.51334E+00    rms(broyden)= 0.51333E+00
  rms(prec ) = 0.52882E+00
  weight for this iteration     100.00

 eigenvalues of (default mixing * dielectric matrix)
  average eigenvalue GAMMA=   0.8551
  2.9888  1.1783  1.1783  0.9801  0.9801  0.6211  0.6211  0.3602  0.3602  0.4826
  0.4826  0.0274

 Free energy of the ion-electron system (eV)
  ---------------------------------------------------
  alpha Z        PSCENC =        28.51252143
  Ewald energy   TEWEN  =      7529.91642125
  -Hartree energ DENC   =    -10614.56210122
  -exchange      EXHF   =         0.00000000
  -V(xc)+E(xc)   XCENC  =        83.02898885
  PAW double counting   =      1897.51064196    -1949.88799540
  entropy T*S    EENTRO =         0.00000000
  eigenvalues    EBANDS =      -524.60213619
  atomic energy  EATOM  =      3512.44449572
  Solvation  Ediel_sol  =         0.00000000
  ---------------------------------------------------
  free energy    TOTEN  =       -37.63916359 eV

  energy without entropy =      -37.63916359  energy(sigma->0) =      -37.63916359


--------------------------------------------------------------------------------------------------------




--------------------------------------- Iteration      1(  18)  ---------------------------------------


    POTLOK:  cpu time   51.5680: real time   51.6911
    SETDIJ:  cpu time    0.0440: real time    0.0444
     EDDAV:  cpu time   28.1800: real time   29.2007
 BZINTS: Fermi energy: -4.661403; 62.000000 electrons
         Band energy:-524.722910;  BLOECHL correction: -0.009658
       DOS:  cpu time    0.0080: real time    0.0077
    CHARGE:  cpu time    2.0720: real time    2.0745
    MIXING:  cpu time    0.0520: real time    0.0524
    --------------------------------------------
      LOOP:  cpu time   81.9240: real time   83.0708

 eigenvalue-minimisations  :  1280
 total energy-change (2. order) :-0.5448378E-01  (-0.2555367E-02)
 number of electron      61.9999985 magnetization       6.1250161
 augmentation part        4.6449087 magnetization       5.2001708

 Broyden mixing:
  rms(total) = 0.70238E+00    rms(broyden)= 0.70237E+00
  rms(prec ) = 0.72614E+00
  weight for this iteration     100.00

 eigenvalues of (default mixing * dielectric matrix)
  average eigenvalue GAMMA=   0.9549
  3.7017  1.3780  1.3780  1.1328  1.1328  0.7074  0.7074  0.3603  0.3603  0.5435
  0.5435  0.4402  0.0274

 Free energy of the ion-electron system (eV)
  ---------------------------------------------------
  alpha Z        PSCENC =        28.51252143
  Ewald energy   TEWEN  =      7529.91642125
  -Hartree energ DENC   =    -10614.26670331
  -exchange      EXHF   =         0.00000000
  -V(xc)+E(xc)   XCENC  =        83.05008240
  PAW double counting   =      1896.91193712    -1949.53949150
  entropy T*S    EENTRO =         0.00000000
  eigenvalues    EBANDS =      -524.72291049
  atomic energy  EATOM  =      3512.44449572
  Solvation  Ediel_sol  =         0.00000000
  ---------------------------------------------------
  free energy    TOTEN  =       -37.69364737 eV

  energy without entropy =      -37.69364737  energy(sigma->0) =      -37.69364737


--------------------------------------------------------------------------------------------------------




--------------------------------------- Iteration      1(  19)  ---------------------------------------


    POTLOK:  cpu time   51.5480: real time   51.7268
    SETDIJ:  cpu time    0.0440: real time    0.0446
     EDDAV:  cpu time   25.5680: real time   26.2481
 BZINTS: Fermi energy: -4.608893; 62.000000 electrons
         Band energy:-524.265543;  BLOECHL correction: -0.005046
       DOS:  cpu time    0.0080: real time    0.0055
    CHARGE:  cpu time    2.0000: real time    2.0818
    MIXING:  cpu time    0.0520: real time    0.0516
    --------------------------------------------
      LOOP:  cpu time   79.2200: real time   80.1585

 eigenvalue-minimisations  :  1136
 total energy-change (2. order) : 0.4288050E-01  (-0.1267219E-01)
 number of electron      61.9999986 magnetization       5.8895989
 augmentation part        4.1503487 magnetization       4.4404171

 Broyden mixing:
  rms(total) = 0.27628E+00    rms(broyden)= 0.27627E+00
  rms(prec ) = 0.27932E+00
  weight for this iteration     100.00

 eigenvalues of (default mixing * dielectric matrix)
  average eigenvalue GAMMA=   1.0630
  4.8622  2.1832  1.1016  1.1016  0.9204  0.9204  0.8232  0.3603  0.3603  0.5677
  0.5677  0.6412  0.4451  0.0274

 Free energy of the ion-electron system (eV)
  ---------------------------------------------------
  alpha Z        PSCENC =        28.51252143
  Ewald energy   TEWEN  =      7529.91642125
  -Hartree energ DENC   =    -10614.55394743
  -exchange      EXHF   =         0.00000000
  -V(xc)+E(xc)   XCENC  =        83.00989185
  PAW double counting   =      1898.02457585    -1950.73918224
  entropy T*S    EENTRO =         0.00000000
  eigenvalues    EBANDS =      -524.26554329
  atomic energy  EATOM  =      3512.44449572
  Solvation  Ediel_sol  =         0.00000000
  ---------------------------------------------------
  free energy    TOTEN  =       -37.65076687 eV

  energy without entropy =      -37.65076687  energy(sigma->0) =      -37.65076687


--------------------------------------------------------------------------------------------------------




--------------------------------------- Iteration      1(  20)  ---------------------------------------


    POTLOK:  cpu time   51.2320: real time   51.6622
    SETDIJ:  cpu time    0.0440: real time    0.0575
     EDDAV:  cpu time   28.0200: real time   28.2825
 BZINTS: Fermi energy: -4.628423; 62.000000 electrons
         Band energy:-524.222445;  BLOECHL correction: -0.006022
       DOS:  cpu time    0.0080: real time    0.0073
    CHARGE:  cpu time    2.0520: real time    2.0746
    MIXING:  cpu time    0.0520: real time    0.0537
    --------------------------------------------
      LOOP:  cpu time   81.4080: real time   82.1378

 eigenvalue-minimisations  :  1232
 total energy-change (2. order) :-0.3362550E-01  (-0.3098103E-02)
 number of electron      61.9999985 magnetization       5.7077075
 augmentation part        4.2272477 magnetization       4.3898544

 Broyden mixing:
  rms(total) = 0.32911E+00    rms(broyden)= 0.32911E+00
  rms(prec ) = 0.33406E+00
  weight for this iteration     100.00

 eigenvalues of (default mixing * dielectric matrix)
  average eigenvalue GAMMA=   1.1360
  5.8497  2.2477  1.1468  1.1468  1.1143  1.1143  0.8632  0.3603  0.3603  0.6433
  0.6433  0.5411  0.5411  0.4399  0.0274

 Free energy of the ion-electron system (eV)
  ---------------------------------------------------
  alpha Z        PSCENC =        28.51252143
  Ewald energy   TEWEN  =      7529.91642125
  -Hartree energ DENC   =    -10614.58057525
  -exchange      EXHF   =         0.00000000
  -V(xc)+E(xc)   XCENC  =        82.91286591
  PAW double counting   =      1898.21282914    -1950.88050545
  entropy T*S    EENTRO =         0.00000000
  eigenvalues    EBANDS =      -524.22244512
  atomic energy  EATOM  =      3512.44449572
  Solvation  Ediel_sol  =         0.00000000
  ---------------------------------------------------
  free energy    TOTEN  =       -37.68439237 eV

  energy without entropy =      -37.68439237  energy(sigma->0) =      -37.68439237


--------------------------------------------------------------------------------------------------------




--------------------------------------- Iteration      1(  21)  ---------------------------------------


    POTLOK:  cpu time   51.3120: real time   51.5626
    SETDIJ:  cpu time    0.0560: real time    0.0545
     EDDAV:  cpu time   26.7640: real time   27.4415
 BZINTS: Fermi energy: -4.602637; 62.000000 electrons
         Band energy:-523.881338;  BLOECHL correction: -0.005051
       DOS:  cpu time    0.0080: real time    0.0053
    CHARGE:  cpu time    2.0520: real time    2.0699
    MIXING:  cpu time    0.0560: real time    0.0528
    --------------------------------------------
      LOOP:  cpu time   80.2480: real time   81.1865

 eigenvalue-minimisations  :  1200
 total energy-change (2. order) : 0.1021918E-01  (-0.1155918E-02)
 number of electron      61.9999986 magnetization       5.3858150
 augmentation part        4.0815435 magnetization       3.9108185

 Broyden mixing:
  rms(total) = 0.23801E+00    rms(broyden)= 0.23801E+00
  rms(prec ) = 0.24139E+00
  weight for this iteration     100.00

 eigenvalues of (default mixing * dielectric matrix)
  average eigenvalue GAMMA=   1.3044
  8.4715  2.4535  1.1579  1.1579  1.1838  1.1838  0.3603  0.3603  0.7653  0.7653
  0.7115  0.7115  0.5595  0.5595  0.4421  0.0274

 Free energy of the ion-electron system (eV)
  ---------------------------------------------------
  alpha Z        PSCENC =        28.51252143
  Ewald energy   TEWEN  =      7529.91642125
  -Hartree energ DENC   =    -10614.97970045
  -exchange      EXHF   =         0.00000000
  -V(xc)+E(xc)   XCENC  =        82.88289797
  PAW double counting   =      1899.29708022    -1951.86655087
  entropy T*S    EENTRO =         0.00000000
  eigenvalues    EBANDS =      -523.88133845
  atomic energy  EATOM  =      3512.44449572
  Solvation  Ediel_sol  =         0.00000000
  ---------------------------------------------------
  free energy    TOTEN  =       -37.67417318 eV

  energy without entropy =      -37.67417318  energy(sigma->0) =      -37.67417318


--------------------------------------------------------------------------------------------------------




--------------------------------------- Iteration      1(  22)  ---------------------------------------


    POTLOK:  cpu time   50.7880: real time   51.1447
    SETDIJ:  cpu time    0.0440: real time    0.0434
     EDDAV:  cpu time   30.3240: real time   30.5914
 BZINTS: Fermi energy: -4.544606; 62.000000 electrons
         Band energy:-522.998991;  BLOECHL correction: -0.009539
       DOS:  cpu time    0.0040: real time    0.0074
    CHARGE:  cpu time    2.0360: real time    2.0639
    MIXING:  cpu time    0.0560: real time    0.0598
    --------------------------------------------
      LOOP:  cpu time   83.2520: real time   83.9105

 eigenvalue-minimisations  :  1360
 total energy-change (2. order) :-0.3415997E-01  (-0.3199462E-02)
 number of electron      61.9999986 magnetization       5.3635463
 augmentation part        3.7471048 magnetization       3.5119057

 Broyden mixing:
  rms(total) = 0.36129E+00    rms(broyden)= 0.36128E+00
  rms(prec ) = 0.38326E+00
  weight for this iteration     100.00

 eigenvalues of (default mixing * dielectric matrix)
  average eigenvalue GAMMA=   1.3159
  9.0799  2.4782  1.3627  1.3627  1.1514  1.1514  0.7299  0.7299  0.7530  0.7530
  0.3603  0.3603  0.5454  0.5454  0.4420  0.5373  0.0274

 Free energy of the ion-electron system (eV)
  ---------------------------------------------------
  alpha Z        PSCENC =        28.51252143
  Ewald energy   TEWEN  =      7529.91642125
  -Hartree energ DENC   =    -10615.88492173
  -exchange      EXHF   =         0.00000000
  -V(xc)+E(xc)   XCENC  =        82.82715229
  PAW double counting   =      1901.36209303    -1953.88710424
  entropy T*S    EENTRO =         0.00000000
  eigenvalues    EBANDS =      -522.99899091
  atomic energy  EATOM  =      3512.44449572
  Solvation  Ediel_sol  =         0.00000000
  ---------------------------------------------------
  free energy    TOTEN  =       -37.70833316 eV

  energy without entropy =      -37.70833316  energy(sigma->0) =      -37.70833316


--------------------------------------------------------------------------------------------------------




--------------------------------------- Iteration      1(  23)  ---------------------------------------


    POTLOK:  cpu time   50.9160: real time   51.1414
    SETDIJ:  cpu time    0.0440: real time    0.0441
     EDDAV:  cpu time   28.5760: real time   29.0054
 BZINTS: Fermi energy: -4.540399; 62.000000 electrons
         Band energy:-522.879826;  BLOECHL correction: -0.009963
       DOS:  cpu time    0.0080: real time    0.0055
    CHARGE:  cpu time    1.9720: real time    2.0934
    MIXING:  cpu time    0.0600: real time    0.0580
    --------------------------------------------
      LOOP:  cpu time   81.5760: real time   82.3478

 eigenvalue-minimisations  :  1232
 total energy-change (2. order) :-0.9238191E-02  (-0.9428532E-03)
 number of electron      61.9999986 magnetization       5.3263682
 augmentation part        3.7254854 magnetization       3.4645262

 Broyden mixing:
  rms(total) = 0.37582E+00    rms(broyden)= 0.37582E+00
  rms(prec ) = 0.39931E+00
  weight for this iteration     100.00

 eigenvalues of (default mixing * dielectric matrix)
  average eigenvalue GAMMA=   1.3716
  9.9813  2.4161  1.5475  1.5475  1.1619  1.1619  0.9869  0.8123  0.8123  0.3603
  0.3603  0.6641  0.6641  0.6379  0.5528  0.5528  0.4420  0.0274

 Free energy of the ion-electron system (eV)
  ---------------------------------------------------
  alpha Z        PSCENC =        28.51252143
  Ewald energy   TEWEN  =      7529.91642125
  -Hartree energ DENC   =    -10616.03686739
  -exchange      EXHF   =         0.00000000
  -V(xc)+E(xc)   XCENC  =        82.80814206
  PAW double counting   =      1901.73638225    -1954.21884094
  entropy T*S    EENTRO =         0.00000000
  eigenvalues    EBANDS =      -522.87982573
  atomic energy  EATOM  =      3512.44449572
  Solvation  Ediel_sol  =         0.00000000
  ---------------------------------------------------
  free energy    TOTEN  =       -37.71757135 eV

  energy without entropy =      -37.71757135  energy(sigma->0) =      -37.71757135


--------------------------------------------------------------------------------------------------------




--------------------------------------- Iteration      1(  24)  ---------------------------------------


    POTLOK:  cpu time   50.9480: real time   51.4256
    SETDIJ:  cpu time    0.0400: real time    0.0419
     EDDAV:  cpu time   26.7400: real time   26.9582
 BZINTS: Fermi energy: -4.559491; 62.000000 electrons
         Band energy:-522.891373;  BLOECHL correction: -0.003098
       DOS:  cpu time    0.0040: real time    0.0076
    CHARGE:  cpu time    2.0560: real time    2.0703
    MIXING:  cpu time    0.0760: real time    0.0753
    --------------------------------------------
      LOOP:  cpu time   79.8640: real time   80.5790

 eigenvalue-minimisations  :  1184
 total energy-change (2. order) : 0.5587552E-02  (-0.7166957E-03)
 number of electron      61.9999986 magnetization       5.2733830
 augmentation part        3.8590838 magnetization       3.5991107

 Broyden mixing:
  rms(total) = 0.27189E+00    rms(broyden)= 0.27188E+00
  rms(prec ) = 0.28718E+00
  weight for this iteration     100.00

 eigenvalues of (default mixing * dielectric matrix)
  average eigenvalue GAMMA=   1.3738
[...]
     34      -1.6854      0.00000
     35      -1.3880      0.00000
     36      -0.8196      0.00000
     37      -0.4593      0.00000
     38       1.0672      0.00000
     39       1.4789      0.00000
     40       1.7152      0.00000
     41       1.9524      0.00000
     42       2.2995      0.00000
     43       2.5071      0.00000
     44       2.6009      0.00000
     45       2.9367      0.00000
     46       3.1345      0.00000
     47       3.6584      0.00000
     48       4.1236      0.00000

 k-point     5 :      -0.4000    0.2000    0.0000
  band No.  band energies     occupation 
      1     -16.7281      1.00000
      2     -16.5812      1.00000
      3     -16.0498      1.00000
      4     -15.8616      1.00000
      5     -15.6958      1.00000
      6     -15.4822      1.00000
      7     -11.5788      1.00000
      8     -10.1825      1.00000
      9      -8.3809      1.00000
     10      -7.7964      1.00000
     11      -7.7885      1.00000
     12      -7.2864      1.00000
     13      -6.9575      1.00000
     14      -6.9363      1.00000
     15      -6.6453      1.00000
     16      -6.2893      1.00000
     17      -6.1436      1.00000
     18      -6.0792      1.00000
     19      -5.8913      1.00000
     20      -5.7252      1.00000
     21      -5.5928      1.00000
     22      -4.7516      1.00000
     23      -4.6290      1.00000
     24      -4.5111      1.00000
     25      -4.4161      1.00000
     26      -3.8293      1.00000
     27      -3.7497      1.00000
     28      -3.7198      1.00000
     29      -3.5103      1.00000
     30      -3.4882      1.00000
     31      -3.3366      1.00000
     32      -2.1351      0.00000
     33      -1.8959      0.00000
     34      -1.7867      0.00000
     35      -1.3995      0.00000
     36      -1.3756      0.00000
     37      -0.4099      0.00000
     38       0.9142      0.00000
     39       0.9258      0.00000
     40       1.5797      0.00000
     41       1.7309      0.00000
     42       1.8800      0.00000
     43       2.9863      0.00000
     44       3.0230      0.00000
     45       3.1110      0.00000
     46       3.1286      0.00000
     47       3.7696      0.00000
     48       3.8295      0.00000


--------------------------------------------------------------------------------------------------------


 soft charge-density along one line, spin component           1
         0         1         2         3         4         5         6         7         8         9
 total charge-density along one line

 soft charge-density along one line, spin component           2
         0         1         2         3         4         5         6         7         8         9
 total charge-density along one line

 pseudopotential strength for first ion, spin component:           1
-10.492  -0.097  -0.000  -0.000  -0.000   1.038   0.034   0.000
 -0.097 -10.609   0.000  -0.000  -0.000   0.034   1.079  -0.000
 -0.000   0.000 -10.444   0.000   0.000   0.000  -0.000   1.021
 -0.000  -0.000   0.000 -10.609   0.097   0.000   0.000  -0.000
 -0.000  -0.000   0.000   0.097 -10.492   0.000   0.000  -0.000
  1.038   0.034   0.000   0.000   0.000   0.655  -0.013  -0.000
  0.034   1.079  -0.000   0.000   0.000  -0.013   0.640   0.000
  0.000  -0.000   1.021  -0.000  -0.000  -0.000   0.000   0.662
  0.000   0.000  -0.000   1.079  -0.034  -0.000  -0.000   0.000
  0.000   0.000  -0.000  -0.034   1.038  -0.000  -0.000   0.000
  0.000  -0.000   0.005  -0.000   0.000   0.000  -0.000  -0.001
 -0.000   0.000  -0.000   0.000  -0.000   0.000  -0.000   0.000
 -0.000   0.000   0.000  -0.000   0.001   0.000  -0.000  -0.000
 -0.000  -0.000   0.000  -0.000  -0.000  -0.000   0.000  -0.000
  0.001  -0.000   0.000   0.000  -0.000   0.000  -0.000  -0.000
 -0.000  -0.000  -0.000   0.000  -0.001  -0.000   0.000   0.000
  0.000   0.000  -0.000   0.000   0.000  -0.000  -0.000   0.000
 -0.001   0.000  -0.000  -0.000   0.000   0.000  -0.000   0.000
 pseudopotential strength for first ion, spin component:           2
-10.492  -0.097  -0.000  -0.000  -0.000   1.038   0.034   0.000
 -0.097 -10.609   0.000  -0.000  -0.000   0.034   1.079  -0.000
 -0.000   0.000 -10.444   0.000   0.000   0.000  -0.000   1.021
 -0.000  -0.000   0.000 -10.609   0.097   0.000   0.000  -0.000
 -0.000  -0.000   0.000   0.097 -10.492   0.000   0.000  -0.000
  1.038   0.034   0.000   0.000   0.000   0.655  -0.013  -0.000
  0.034   1.079  -0.000   0.000   0.000  -0.013   0.640   0.000
  0.000  -0.000   1.021  -0.000  -0.000  -0.000   0.000   0.662
  0.000   0.000  -0.000   1.079  -0.034  -0.000  -0.000   0.000
  0.000   0.000  -0.000  -0.034   1.038  -0.000  -0.000   0.000
  0.000  -0.000   0.005  -0.000   0.000   0.000  -0.000  -0.001
 -0.000   0.000  -0.000   0.000  -0.000   0.000  -0.000   0.000
 -0.000   0.000   0.000  -0.000   0.001   0.000  -0.000  -0.000
 -0.000  -0.000   0.000  -0.000  -0.000  -0.000   0.000  -0.000
  0.001  -0.000   0.000   0.000  -0.000   0.000  -0.000  -0.000
 -0.000  -0.000  -0.000   0.000  -0.001  -0.000   0.000   0.000
  0.000   0.000  -0.000   0.000   0.000  -0.000  -0.000   0.000
 -0.001   0.000  -0.000  -0.000   0.000   0.000  -0.000   0.000
 total augmentation occupancy for first ion, spin component:           1
  1.685  -0.305   0.000  -0.000  -0.000   0.092   0.194   0.000   0.000   0.000  -0.000  -0.000   0.000   0.000   0.009  -0.000
 -0.305   1.403  -0.000  -0.000  -0.000   0.190   0.279   0.000  -0.000   0.000   0.000   0.000   0.000   0.000   0.010  -0.000
  0.000  -0.000   1.928  -0.000  -0.000   0.000   0.000  -0.073   0.000  -0.000  -0.018  -0.009  -0.000   0.000   0.000   0.000
 -0.000  -0.000  -0.000   1.403   0.305   0.000  -0.000   0.000   0.279  -0.190   0.000  -0.000  -0.010  -0.000   0.000   0.000
 -0.000  -0.000  -0.000   0.305   1.685  -0.000   0.000  -0.000  -0.194   0.092   0.000   0.000   0.009  -0.000  -0.000  -0.002
  0.092   0.190   0.000   0.000  -0.000   0.123   0.058   0.000   0.000  -0.000   0.000  -0.000   0.000  -0.000   0.035  -0.000
  0.194   0.279   0.000  -0.000   0.000   0.058   0.196   0.000  -0.000   0.000  -0.000   0.000   0.000   0.000  -0.008  -0.000
  0.000   0.000  -0.073   0.000  -0.000   0.000   0.000   0.116   0.000  -0.000   0.039  -0.018  -0.000  -0.000   0.000   0.000
  0.000  -0.000   0.000   0.279  -0.194   0.000  -0.000   0.000   0.196  -0.058   0.000  -0.000   0.008   0.000   0.000  -0.001
  0.000   0.000  -0.000  -0.190   0.092  -0.000   0.000  -0.000  -0.058   0.123  -0.000   0.000   0.035   0.000  -0.000  -0.005
 -0.000   0.000  -0.018   0.000   0.000   0.000  -0.000   0.039   0.000  -0.000   1.106  -0.351   0.000   0.000  -0.000   0.000
 -0.000   0.000  -0.009   0.000   0.000  -0.000  -0.000  -0.018  -0.000   0.000  -0.351   0.194   0.000  -0.000   0.000   0.000
  0.000   0.000  -0.000  -0.010   0.009   0.000   0.000  -0.000   0.008   0.035   0.000  -0.000   0.229  -0.000  -0.000  -0.018
  0.000   0.000   0.000  -0.000  -0.000  -0.000  -0.000  -0.000   0.000   0.000   0.000  -0.000  -0.000   0.238  -0.000   0.000
  0.009   0.010   0.000   0.000  -0.000   0.035  -0.008   0.000   0.000  -0.000  -0.000  -0.000  -0.000  -0.000   0.229  -0.000
 -0.000  -0.000   0.000   0.000  -0.002  -0.000  -0.000   0.000  -0.001  -0.005   0.000   0.000  -0.018   0.000  -0.000   0.002
 -0.000   0.000  -0.000  -0.000   0.000   0.000   0.000   0.000  -0.000  -0.000  -0.000   0.000   0.000  -0.021   0.000  -0.000
 -0.002  -0.000  -0.000  -0.000   0.000  -0.005   0.001  -0.000  -0.000   0.000  -0.000   0.000   0.000   0.000  -0.018  -0.000
 total augmentation occupancy for first ion, spin component:           2
  0.000   0.000   0.000  -0.000   0.000  -0.000   0.000  -0.000  -0.000  -0.000  -0.000  -0.000  -0.000  -0.000  -0.000  -0.000
  0.000   0.000   0.000  -0.000  -0.000   0.000  -0.000   0.000   0.000   0.000   0.000   0.000  -0.000   0.000  -0.000  -0.000
  0.000   0.000  -0.000   0.000  -0.000  -0.000   0.000  -0.000   0.000   0.000  -0.000  -0.000  -0.000  -0.000  -0.000  -0.000
 -0.000  -0.000   0.000   0.000  -0.000   0.000  -0.000   0.000  -0.000  -0.000  -0.000  -0.000   0.000  -0.000  -0.000   0.000
 -0.000  -0.000  -0.000  -0.000   0.000   0.000  -0.000   0.000  -0.000  -0.000   0.000   0.000  -0.000   0.000   0.000   0.000
 -0.000   0.000  -0.000   0.000   0.000  -0.000  -0.000   0.000  -0.000  -0.000  -0.000  -0.000  -0.000  -0.000   0.000  -0.000
  0.000  -0.000   0.000  -0.000  -0.000  -0.000  -0.000  -0.000   0.000  -0.000   0.000  -0.000  -0.000  -0.000   0.000  -0.000
 -0.000   0.000  -0.000   0.000   0.000   0.000  -0.000   0.000  -0.000  -0.000  -0.000  -0.000  -0.000  -0.000  -0.000  -0.000
 -0.000   0.000   0.000  -0.000  -0.000  -0.000   0.000  -0.000  -0.000   0.000  -0.000   0.000  -0.000   0.000  -0.000  -0.000
 -0.000   0.000   0.000  -0.000  -0.000   0.000  -0.000  -0.000   0.000  -0.000   0.000   0.000   0.000   0.000   0.000   0.000
 -0.000   0.000  -0.000  -0.000   0.000  -0.000   0.000  -0.000  -0.000   0.000   0.000   0.000   0.000   0.000  -0.000   0.000
 -0.000  -0.000  -0.000  -0.000   0.000  -0.000   0.000  -0.000  -0.000   0.000   0.000  -0.000   0.000   0.000   0.000   0.000
 -0.000  -0.000  -0.000   0.000  -0.000  -0.000  -0.000  -0.000  -0.000   0.000   0.000   0.000  -0.000   0.000   0.000   0.000
 -0.000   0.000  -0.000  -0.000   0.000  -0.000  -0.000  -0.000   0.000   0.000   0.000   0.000   0.000  -0.000   0.000  -0.000
 -0.000  -0.000  -0.000  -0.000   0.000   0.000   0.000  -0.000  -0.000   0.000   0.000   0.000   0.000   0.000  -0.000  -0.000
 -0.000  -0.000  -0.000   0.000   0.000  -0.000  -0.000  -0.000  -0.000   0.000   0.000  -0.000   0.000  -0.000  -0.000  -0.000
 -0.000   0.000  -0.000  -0.000   0.000   0.000  -0.000   0.000   0.000  -0.000   0.000   0.000  -0.000   0.000  -0.000   0.000
  0.000  -0.000   0.000  -0.000   0.000   0.000   0.000   0.000  -0.000   0.000   0.000   0.000   0.000  -0.000   0.000   0.000


------------------------ aborting loop because EDIFF is reached ----------------------------------------





 total charge     

# of ion       s       p       d       tot
------------------------------------------
    1        0.400   0.531   7.368   8.300
    2        0.400   0.531   7.368   8.300
    3        1.131   1.196   0.121   2.448
    4        1.131   1.196   0.121   2.448
    5        1.374   2.284   0.000   3.658
    6        1.370   2.312   0.000   3.682
    7        1.373   2.289   0.000   3.662
    8        1.374   2.284   0.000   3.658
    9        1.370   2.312   0.000   3.682
   10        1.373   2.289   0.000   3.662
--------------------------------------------------
tot         11.296  17.223  14.978  43.497



 magnetization (x)

# of ion       s       p       d       tot
------------------------------------------
    1        0.000   0.000   0.000   0.000
    2        0.000   0.000   0.000   0.000
    3        0.000   0.000   0.000   0.000
    4        0.000   0.000   0.000   0.000
    5        0.000  -0.000   0.000  -0.000
    6        0.000  -0.000   0.000  -0.000
    7        0.000  -0.000   0.000  -0.000
    8        0.000  -0.000   0.000  -0.000
    9        0.000  -0.000   0.000  -0.000
   10        0.000  -0.000   0.000  -0.000
--------------------------------------------------
tot          0.000  -0.000   0.000   0.000

    CHARGE:  cpu time    2.0640: real time    2.0651
    FORLOC:  cpu time    0.0560: real time    0.0570
    FORNL :  cpu time    6.7200: real time    6.8627
    STRESS:  cpu time   20.2440: real time   20.3993
    FORCOR:  cpu time   51.1400: real time   52.2420
    FORHAR:  cpu time    0.3240: real time    0.3281
    MIXING:  cpu time    0.0440: real time    0.0469
    OFIELD:  cpu time    0.0000: real time    0.0000

  FORCE on cell =-STRESS in cart. coord.  units (eV):
  Direction    XX          YY          ZZ          XY          YZ          ZX
  --------------------------------------------------------------------------------------
  Alpha Z    40.47766    40.47766    40.47766
  Ewald   13640.71608 13640.71407-15736.74233    -0.00250    -0.00054    -0.00096
  Hartree 14219.37966 14219.38067-13752.25046    -0.00055     0.00005     0.00008
  E(xc)    -251.03700  -251.03707  -250.57059     0.00007     0.00000     0.00001
  Local  -28743.88433-28743.88457 28568.36075     0.00256     0.00032     0.00059
  n-local   411.98059   412.55146   416.12691     0.25062     0.89257     0.84847
  augment    -5.42439    -5.42447    -9.57383     0.00022     0.00023    -0.00007
  Kinetic   689.64938   684.86682   723.91699    -3.07570     1.91449     2.08418
  Fock        0.00000     0.00000     0.00000     0.00000     0.00000     0.00000
  -------------------------------------------------------------------------------------
  Total      -0.24890    -0.24890    -0.25490     0.00000    -0.00000    -0.00000
  in kB      -0.58434    -0.58434    -0.59844     0.00001    -0.00000    -0.00000
  external pressure =       -0.59 kB  Pullay stress =        0.00 kB


 VOLUME and BASIS-vectors are now :
 -----------------------------------------------------------------------------
  energy-cutoff  :      520.00
  volume of cell :      682.45
      direct lattice vectors                 reciprocal lattice vectors
     5.885379045 -0.000000155 -0.000000000     0.169912588 -0.098099079 -0.000000000
     2.942689382  5.096887486 -0.000000000     0.000000005  0.196198168  0.000000000
     0.000000000 -0.000000000 22.750479360     0.000000000  0.000000000  0.043955118

  length of vectors
     5.885379045  5.885378734 22.750479360     0.196198157  0.196198168  0.043955118


 FORCES acting on ions
    electron-ion (+dipol)            ewald-force                    non-local-force                 convergence-correction
 -----------------------------------------------------------------------------------------------
   -.629E-04 -.519E-04 -.195E+00   0.764E-03 0.458E-03 0.197E+00   -.694E-17 0.266E-20 -.429E-02   0.334E-06 0.218E-06 0.447E-03
   0.629E-04 0.519E-04 0.195E+00   -.764E-03 -.458E-03 -.197E+00   0.694E-17 -.139E-16 0.429E-02   -.334E-06 -.218E-06 -.447E-03
   -.189E-04 -.366E-04 0.285E+03   -.202E-03 -.114E-03 -.282E+03   0.937E-17 0.162E-16 -.378E+01   0.572E-08 0.114E-07 0.198E-01
   0.189E-04 0.366E-04 -.285E+03   0.202E-03 0.114E-03 0.282E+03   -.267E-16 -.197E-16 0.378E+01   -.572E-08 -.114E-07 -.198E-01
   -.385E+02 0.922E-02 -.570E+03   0.340E+02 -.121E-01 0.575E+03   0.448E+01 0.244E-02 -.498E+01   -.158E-01 0.157E-03 -.546E-01
   0.193E+02 0.333E+02 -.570E+03   -.170E+02 -.295E+02 0.575E+03   -.224E+01 -.388E+01 -.498E+01   0.804E-02 0.136E-01 -.546E-01
   0.192E+02 -.333E+02 -.570E+03   -.170E+02 0.295E+02 0.575E+03   -.224E+01 0.388E+01 -.498E+01   0.776E-02 -.138E-01 -.546E-01
   0.385E+02 -.922E-02 0.570E+03   -.340E+02 0.121E-01 -.575E+03   -.448E+01 -.244E-02 0.498E+01   0.158E-01 -.157E-03 0.546E-01
   -.193E+02 -.333E+02 0.570E+03   0.170E+02 0.295E+02 -.575E+03   0.224E+01 0.388E+01 0.498E+01   -.804E-02 -.136E-01 0.546E-01
   -.192E+02 0.333E+02 0.570E+03   0.170E+02 -.295E+02 -.575E+03   0.224E+01 -.388E+01 0.498E+01   -.776E-02 0.138E-01 0.546E-01
 -----------------------------------------------------------------------------------------------
   -.609E-10 -.953E-10 0.392E-09   0.391E-13 -.711E-14 -.114E-12   0.888E-15 0.000E+00 0.178E-14   0.178E-12 -.216E-12 -.122E-10


 POSITION                                       TOTAL-FORCE (eV/Angst)
 -----------------------------------------------------------------------------------
      2.94269      1.69896     11.37556        -0.000000     -0.000000     -0.002345
      5.88538      3.39793     11.37492        -0.000000      0.000000      0.002345
      0.00000     -0.00000     10.19713        -0.000000      0.000000     -0.037514
      0.00000     -0.00000     12.55335         0.000000     -0.000000      0.037514
      3.60257     -0.00016     12.79466        -0.014862      0.000548     -0.004687
      1.14127      1.97705     12.79466         0.007906      0.012597     -0.004687
      4.08424      3.12000     12.79466         0.006957     -0.013145     -0.004687
      2.28281      0.00016      9.95582         0.014862     -0.000548      0.004687
      1.80142      3.11983      9.95582        -0.007906     -0.012597      0.004687
      4.74383      1.97689      9.95582        -0.006957      0.013145      0.004687
 -----------------------------------------------------------------------------------
    total drift:                               -0.000000     -0.000000      0.000000


--------------------------------------------------------------------------------------------------------



  FREE ENERGIE OF THE ION-ELECTRON SYSTEM (eV)
  ---------------------------------------------------
  free  energy   TOTEN  =       -45.77207797 eV

  energy  without entropy=      -45.77207797  energy(sigma->0) =      -45.77207797

 d Force = 0.1473360E-04[ 0.253E-05, 0.269E-04]  d Energy = 0.1602024E-02-0.159E-02
 d Force =-0.3650205E+00[-0.366E+00,-0.364E+00]  d Ewald  =-0.2153390E+02 0.212E+02


--------------------------------------------------------------------------------------------------------


    POTLOK:  cpu time   51.6400: real time   52.0971


--------------------------------------------------------------------------------------------------------




--------------------------------------------------------------------------------------------------------


  
 reached required accuracy - stopping structural energy minimisation
     LOOP+:  cpu time  539.3560: real time  543.9995
    4ORBIT:  cpu time    0.0000: real time    0.0000



 total charge     

# of ion       s       p       d       tot
------------------------------------------
    1        0.400   0.531   7.368   8.300
    2        0.400   0.531   7.368   8.300
    3        1.131   1.196   0.121   2.448
    4        1.131   1.196   0.121   2.448
    5        1.374   2.284   0.000   3.658
    6        1.370   2.312   0.000   3.682
    7        1.373   2.289   0.000   3.662
    8        1.374   2.284   0.000   3.658
    9        1.370   2.312   0.000   3.682
   10        1.373   2.289   0.000   3.662
--------------------------------------------------
tot         11.296  17.223  14.978  43.497



 magnetization (x)

# of ion       s       p       d       tot
------------------------------------------
    1        0.000   0.000   0.000   0.000
    2        0.000   0.000   0.000   0.000
    3        0.000   0.000   0.000   0.000
    4        0.000   0.000   0.000   0.000
    5        0.000  -0.000   0.000  -0.000
    6        0.000  -0.000   0.000  -0.000
    7        0.000  -0.000   0.000  -0.000
    8        0.000  -0.000   0.000  -0.000
    9        0.000  -0.000   0.000  -0.000
   10        0.000  -0.000   0.000  -0.000
--------------------------------------------------
tot          0.000  -0.000   0.000   0.000

 BZINTS: Fermi energy: -2.945703; 62.000000 electrons
         Band energy:-491.753097;  BLOECHL correction:  0.000000

 total amount of memory used by VASP MPI-rank0   129781. kBytes
=======================================================================

   base      :      30000. kBytes
   nonlr-proj:       9486. kBytes
   fftplans  :      11247. kBytes
   grid      :      66142. kBytes
   one-center:        311. kBytes
   wavefun   :      12595. kBytes

  
  
 General timing and accounting informations for this job:
 ========================================================
  
                  Total CPU time used (sec):    21263.564
                            User time (sec):    20743.144
                          System time (sec):      520.420
                         Elapsed time (sec):    21455.621
  
                   Maximum memory used (kb):      386956.
                   Average memory used (kb):           0.
  
                          Minor page faults:     19157884
                          Major page faults:            7
                 Voluntary context switches:         1060
