       N       E                     dE             d eps       ncg     rms          rms(c)
DAV:   1     0.388340815892E+03    0.38834E+03   -0.16445E+04   960   0.832E+02
DAV:   2     0.974918044453E+01   -0.37859E+03   -0.35070E+03  1184   0.164E+02
DAV:   3    -0.406518461803E+02   -0.50401E+02   -0.48918E+02  1312   0.682E+01
DAV:   4    -0.430546621156E+02   -0.24028E+01   -0.23847E+01  1296   0.193E+01
DAV:   5    -0.431369848198E+02   -0.82323E-01   -0.82317E-01  1488   0.347E+00    0.146E+01
DAV:   6    -0.473929743458E+02   -0.42560E+01   -0.25399E+01  1456   0.471E+01    0.254E+01
DAV:   7    -0.411044300144E+02    0.62885E+01   -0.65654E+01  1312   0.727E+01    0.911E+00
DAV:   8    -0.411113525270E+02   -0.69225E-02   -0.32808E+00  1312   0.893E+00    0.565E+00
DAV:   9    -0.415097736835E+02   -0.39842E+00   -0.15504E+00  1248   0.912E+00    0.330E+00
DAV:  10    -0.420036867743E+02   -0.49391E+00   -0.61478E-01  1216   0.463E+00    0.309E+00
DAV:  11    -0.421208655815E+02   -0.11718E+00   -0.10131E-01  1232   0.296E+00    0.224E+00
DAV:  12    -0.423047758672E+02   -0.18391E+00   -0.19895E-01  1408   0.551E+00    0.216E+00
DAV:  13    -0.424628577353E+02   -0.15808E+00   -0.17721E-01  1264   0.464E+00    0.711E-01
DAV:  14    -0.425896498929E+02   -0.12679E+00   -0.41351E-02  1056   0.123E+00    0.410E-01
DAV:  15    -0.425217236830E+02    0.67926E-01   -0.71115E-03  1024   0.459E-01    0.153E-01
DAV:  16    -0.425309571583E+02   -0.92335E-02   -0.27116E-03   960   0.264E-01    0.701E-02
DAV:  17    -0.425306180120E+02    0.33915E-03   -0.81168E-04  1008   0.131E-01    0.366E-02
DAV:  18    -0.425305398859E+02    0.78126E-04   -0.17497E-04   960   0.669E-02
   1 F= -.42530540E+02 E0= -.42530540E+02  d E =-.425305E+02  mag=     5.5799
       N       E                     dE             d eps       ncg     rms          rms(c)
DAV:   1    -0.427301652649E+02   -0.19955E+00   -0.40457E+00  1248   0.120E+01    0.261E+00
DAV:   2    -0.427204738389E+02    0.96914E-02   -0.72429E-01  1360   0.880E+00    0.290E+00
DAV:   3    -0.425987555256E+02    0.12172E+00   -0.57759E-01  1312   0.877E+00    0.141E+00
DAV:   4    -0.425560609462E+02    0.42695E-01   -0.13384E-01  1296   0.294E+00    0.249E-01
DAV:   5    -0.425538657365E+02    0.21952E-02   -0.10060E-02  1168   0.453E-01    0.106E-01
DAV:   6    -0.425543267393E+02   -0.46100E-03   -0.12634E-03  1248   0.214E-01    0.625E-02
DAV:   7    -0.425551685011E+02   -0.84176E-03   -0.70684E-04  1104   0.256E-01    0.757E-02
DAV:   8    -0.425557998815E+02   -0.63138E-03   -0.48378E-04   992   0.231E-01    0.303E-02
DAV:   9    -0.425567825979E+02   -0.98272E-03   -0.34145E-04   992   0.917E-02    0.200E-02
DAV:  10    -0.425584734784E+02   -0.16909E-02   -0.66899E-04   992   0.707E-02    0.140E-02
DAV:  11    -0.425594576454E+02   -0.98417E-03   -0.45645E-04  1024   0.548E-02    0.907E-03
DAV:  12    -0.425599285553E+02   -0.47091E-03   -0.23021E-04   928   0.372E-02    0.604E-03
DAV:  13    -0.425600861854E+02   -0.15763E-03   -0.12215E-04   880   0.264E-02    0.393E-03
DAV:  14    -0.425601541566E+02   -0.67971E-04   -0.45905E-05  1088   0.162E-02
   2 F= -.42560154E+02 E0= -.42560154E+02  d E =-.296143E-01  mag=     5.5197
       N       E                     dE             d eps       ncg     rms          rms(c)
DAV:   1    -0.425657983805E+02   -0.57122E-02   -0.97373E-02  1184   0.185E+00    0.397E-01
DAV:   2    -0.425655050011E+02    0.29338E-03   -0.17410E-02  1408   0.142E+00    0.449E-01
DAV:   3    -0.425626203066E+02    0.28847E-02   -0.11029E-02  1280   0.120E+00    0.200E-01
DAV:   4    -0.425615693757E+02    0.10509E-02   -0.29474E-03  1312   0.453E-01    0.357E-02
DAV:   5    -0.425614949025E+02    0.74473E-04   -0.14816E-04   800   0.806E-02
   3 F= -.42561495E+02 E0= -.42561495E+02  d E =-.309550E-01  mag=     5.5240
       N       E                     dE             d eps       ncg     rms          rms(c)
DAV:   1    -0.425688079315E+02   -0.72386E-02   -0.19168E-01  1152   0.146E+00    0.273E-01
DAV:   2    -0.425674341293E+02    0.13738E-02   -0.94758E-03  1264   0.766E-01    0.255E-01
DAV:   3    -0.425665574831E+02    0.87665E-03   -0.44633E-03  1376   0.749E-01    0.176E-01
DAV:   4    -0.425649823204E+02    0.15752E-02   -0.25666E-03  1312   0.394E-01    0.488E-02
DAV:   5    -0.425646976892E+02    0.28463E-03   -0.53464E-04  1184   0.217E-01    0.540E-02
DAV:   6    -0.425646283115E+02    0.69378E-04   -0.14539E-04   944   0.164E-01
   4 F= -.42564628E+02 E0= -.42564628E+02  d E =-.313341E-02  mag=     5.5219
       N       E                     dE             d eps       ncg     rms          rms(c)
DAV:   1    -0.426043311946E+02   -0.39634E-01   -0.17148E+00  1120   0.438E+00    0.835E-01
DAV:   2    -0.425862886462E+02    0.18043E-01   -0.91023E-02  1248   0.245E+00    0.814E-01
DAV:   3    -0.425763640276E+02    0.99246E-02   -0.44147E-02  1376   0.239E+00    0.523E-01
DAV:   4    -0.425621991901E+02    0.14165E-01   -0.22240E-02  1392   0.108E+00    0.118E-01
DAV:   5    -0.425619163381E+02    0.28285E-03   -0.32069E-03   976   0.242E-01    0.583E-02
DAV:   6    -0.425624567542E+02   -0.54042E-03   -0.66173E-04   960   0.145E-01    0.414E-02
DAV:   7    -0.425637418269E+02   -0.12851E-02   -0.93269E-04   992   0.199E-01    0.597E-02
DAV:   8    -0.425642835643E+02   -0.54174E-03   -0.42801E-04   960   0.199E-01    0.287E-02
DAV:   9    -0.425650201743E+02   -0.73661E-03   -0.39155E-04   960   0.938E-02    0.219E-02
DAV:  10    -0.425661376342E+02   -0.11175E-02   -0.13613E-03   976   0.939E-02    0.145E-02
DAV:  11    -0.425663093585E+02   -0.17172E-03   -0.51997E-04  1072   0.576E-02    0.135E-02
DAV:  12    -0.425660828793E+02    0.22648E-03   -0.33243E-04   912   0.424E-02    0.112E-02
DAV:  13    -0.425657011907E+02    0.38169E-03   -0.16433E-04   912   0.327E-02    0.989E-03
DAV:  14    -0.425656119718E+02    0.89219E-04   -0.42415E-05   816   0.235E-02
   5 F= -.42565612E+02 E0= -.42565612E+02  d E =-.411707E-02  mag=     5.4827
       N       E                     dE             d eps       ncg     rms          rms(c)
DAV:   1    -0.425702453810E+02   -0.45442E-02   -0.16206E-01  1040   0.134E+00    0.257E-01
DAV:   2    -0.425689511988E+02    0.12942E-02   -0.87962E-03  1248   0.772E-01    0.255E-01
DAV:   3    -0.425680090315E+02    0.94217E-03   -0.40090E-03  1344   0.714E-01    0.158E-01
DAV:   4    -0.425669532638E+02    0.10558E-02   -0.20218E-03  1328   0.328E-01    0.360E-02
DAV:   5    -0.425668384130E+02    0.11485E-03   -0.26213E-04   896   0.743E-02    0.193E-02
DAV:   6    -0.425668070569E+02    0.31356E-04   -0.37903E-05   736   0.724E-02
   6 F= -.42566807E+02 E0= -.42566807E+02  d E =-.531215E-02  mag=     5.4894
       N       E                     dE             d eps       ncg     rms          rms(c)
DAV:   1    -0.425721963761E+02   -0.53580E-02   -0.22958E-01  1152   0.192E+00    0.335E-01
DAV:   2    -0.425722788460E+02   -0.82470E-04   -0.22103E-02  1120   0.122E+00    0.375E-01
DAV:   3    -0.425702529563E+02    0.20259E-02   -0.83582E-03  1264   0.104E+00    0.185E-01
DAV:   4    -0.425690102888E+02    0.12427E-02   -0.26328E-03  1296   0.405E-01    0.451E-02
DAV:   5    -0.425688756881E+02    0.13460E-03   -0.48725E-04  1200   0.186E-01    0.520E-02
DAV:   6    -0.425688213509E+02    0.54337E-04   -0.14802E-04   960   0.163E-01
   7 F= -.42568821E+02 E0= -.42568821E+02  d E =-.201429E-02  mag=     5.4973
       N       E                     dE             d eps       ncg     rms          rms(c)
DAV:   1    -0.425687679450E+02    0.10774E-03   -0.43746E-05   688   0.619E-02    0.142E-02
DAV:   2    -0.425687446223E+02    0.23323E-04   -0.27902E-05   688   0.432E-02
   8 F= -.42568745E+02 E0= -.42568745E+02  d E =-.193757E-02  mag=     5.4987
