 vasp.5.4.4.18Apr17-6-g9f103f2a35 (build May  1 2020 15:48:39) complex           
 executed on             LinuxGNU date 2020.06.17  21:31:16
 running on   16 total cores
 distrk:  each k-point on   16 cores,    1 groups
 distr:  one band on NCORES_PER_BAND=   1 cores,   16 groups


--------------------------------------------------------------------------------------------------------


 INCAR:
 POTCAR:   PAW_PBE Cr 06Sep2000                   
 POTCAR:    PAW_PBE P 17Jan2003                   
 POTCAR:   PAW_PBE Ge 05Jan2001                   
 POTCAR:   PAW_PBE Te 08Apr2002                   

 ----------------------------------------------------------------------------- 
|                                                                             |
|           W    W    AA    RRRRR   N    N  II  N    N   GGGG   !!!           |
|           W    W   A  A   R    R  NN   N  II  NN   N  G    G  !!!           |
|           W    W  A    A  R    R  N N  N  II  N N  N  G       !!!           |
|           W WW W  AAAAAA  RRRRR   N  N N  II  N  N N  G  GGG   !            |
|           WW  WW  A    A  R   R   N   NN  II  N   NN  G    G                |
|           W    W  A    A  R    R  N    N  II  N    N   GGGG   !!!           |
|                                                                             |
|      For optimal performance we recommend to set                            |
|        NCORE= 4 - approx SQRT( number of cores)                             |
|      NCORE specifies how many cores store one orbital (NPAR=cpu/NCORE).     |
|      This setting can  greatly improve the performance of VASP for DFT.     |
|      The default,   NCORE=1            might be grossly inefficient         |
|      on modern multi-core architectures or massively parallel machines.     |
|      Do your own testing !!!!                                               |
|      Unfortunately you need to use the default for GW and RPA calculations. |
|      (for HF NCORE is supported but not extensively tested yet)             |
|                                                                             |
 ----------------------------------------------------------------------------- 


 ----------------------------------------------------------------------------- 
|                                                                             |
|  ADVICE TO THIS USER RUNNING 'VASP/VAMP'   (HEAR YOUR MASTER'S VOICE ...):  |
|                                                                             |
|      You have switched on vdW-DFT.                                          |
|      This routine was written and supplied by Jiri Klimes.                  |
|      We recommed that you carefully read and cite the following             |
|      publication                                                            |
|      J. Klimes, D.R. Bowler, A. Michelides                                  |
|        J. Phys.: Cond Matt. 22 022201 (2010)                                |
|      J. Klimes, D.R. Bowler, A. Michelides                                  |
|        Phys. Rev. B. 83, 195131 (2011)                                      |
|      and references therein.                                                |
|                                                                             |
 ----------------------------------------------------------------------------- 

 POTCAR:   PAW_PBE Cr 06Sep2000                   
   VRHFIN =Cr : d5 s1                                                           
   LEXCH  = PE                                                                  
   EATOM  =   276.9744 eV,   20.3570 Ry                                         
                                                                                
   TITEL  = PAW_PBE Cr 06Sep2000                                                
   LULTRA =        F    use ultrasoft PP ?                                      
   IUNSCR =        1    unscreen: 0-lin 1-nonlin 2-no                           
   RPACOR =    2.080    partial core radius                                     
   POMASS =   51.996; ZVAL   =    6.000    mass and valenz                      
   RCORE  =    2.500    outmost cutoff radius                                   
   RWIGS  =    2.500; RWIGS  =    1.323    wigner-seitz radius (au A)           
   ENMAX  =  227.082; ENMIN  =  170.311 eV                                      
   RCLOC  =    1.721    cutoff for local pot                                    
   LCOR   =        T    correct aug charges                                     
   LPAW   =        T    paw PP                                                  
   EAUG   =  402.108                                                            
   DEXC   =    -.035                                                            
   RMAX   =    3.060    core radius for proj-oper                               
   RAUG   =    1.300    factor for augmentation sphere                          
   RDEP   =    2.609    radius for radial grids                                 
   QCUT   =   -4.085; QGAM   =    8.171    optimization parameters              
                                                                                
   Description                                                                  
     l     E      TYP  RCUT    TYP  RCUT                                        
     2   .000     23  2.500                                                     
     2   .000     23  2.500                                                     
     0   .000     23  2.500                                                     
     0   .000     23  2.500                                                     
     1  -.400     23  2.500                                                     
     1  2.000     23  2.500                                                     
     3   .000      7   .000                                                     
  local pseudopotential read in
  partial core-charges read in
  atomic valenz-charges read in
  non local Contribution for L=           2  read in
    real space projection operators read in
  non local Contribution for L=           2  read in
    real space projection operators read in
  non local Contribution for L=           0  read in
    real space projection operators read in
  non local Contribution for L=           0  read in
    real space projection operators read in
  non local Contribution for L=           1  read in
    real space projection operators read in
  non local Contribution for L=           1  read in
    real space projection operators read in
    PAW grid and wavefunctions read in

   number of l-projection  operators is LMAX  =           6
   number of lm-projection operators is LMMAX =          18

 POTCAR:    PAW_PBE P 17Jan2003                   
   VRHFIN =P : s2p3                                                             
   LEXCH  = PE                                                                  
   EATOM  =   176.0430 eV,   12.9388 Ry                                         
                                                                                
   TITEL  = PAW_PBE P 17Jan2003                                                 
   LULTRA =        F    use ultrasoft PP ?                                      
   IUNSCR =        1    unscreen: 0-lin 1-nonlin 2-no                           
   RPACOR =    1.500    partial core radius                                     
   POMASS =   30.974; ZVAL   =    5.000    mass and valenz                      
   RCORE  =    1.900    outmost cutoff radius                                   
   RWIGS  =    2.330; RWIGS  =    1.233    wigner-seitz radius (au A)           
   ENMAX  =  270.000; ENMIN  =  191.280 eV                                      
   ICORE  =        2    local potential                                         
   LCOR   =        T    correct aug charges                                     
   LPAW   =        T    paw PP                                                  
   EAUG   =  342.924                                                            
   DEXC   =    -.002                                                            
   RMAX   =    2.887    core radius for proj-oper                               
   RAUG   =    1.300    factor for augmentation sphere                          
   RDEP   =    1.931    radius for radial grids                                 
   QCUT   =   -4.330; QGAM   =    8.659    optimization parameters              
                                                                                
   Description                                                                  
     l     E      TYP  RCUT    TYP  RCUT                                        
     0   .000     23  1.900                                                     
     0   .000     23  1.900                                                     
     1   .000     23  1.900                                                     
     1   .000     23  1.900                                                     
     2   .000     23  1.900                                                     
  local pseudopotential read in
  partial core-charges read in
  atomic valenz-charges read in
  non local Contribution for L=           0  read in
    real space projection operators read in
  non local Contribution for L=           0  read in
    real space projection operators read in
  non local Contribution for L=           1  read in
    real space projection operators read in
  non local Contribution for L=           1  read in
    real space projection operators read in
    PAW grid and wavefunctions read in

   number of l-projection  operators is LMAX  =           4
   number of lm-projection operators is LMMAX =           8

 POTCAR:   PAW_PBE Ge 05Jan2001                   
   VRHFIN =Ge: s2p2                                                             
   LEXCH  = PE                                                                  
   EATOM  =   104.9960 eV,    7.7170 Ry                                         
                                                                                
   TITEL  = PAW_PBE Ge 05Jan2001                                                
   LULTRA =        F    use ultrasoft PP ?                                      
   IUNSCR =        1    unscreen: 0-lin 1-nonlin 2-no                           
   RPACOR =    2.170    partial core radius                                     
   POMASS =   72.610; ZVAL   =    4.000    mass and valenz                      
   RCORE  =    2.300    outmost cutoff radius                                   
   RWIGS  =    2.300; RWIGS  =    1.217    wigner-seitz radius (au A)           
   ENMAX  =  173.807; ENMIN  =  130.355 eV                                      
   ICORE  =        3    local potential                                         
   LCOR   =        T    correct aug charges                                     
   LPAW   =        T    paw PP                                                  
   EAUG   =  385.843                                                            
   DEXC   =    -.138                                                            
   RMAX   =    3.497    core radius for proj-oper                               
   RAUG   =    1.300    factor for augmentation sphere                          
   RDEP   =    2.318    radius for radial grids                                 
   QCUT   =   -3.574; QGAM   =    7.148    optimization parameters              
                                                                                
   Description                                                                  
     l     E      TYP  RCUT    TYP  RCUT                                        
     0   .000     23  2.300                                                     
     0   .000     23  2.300                                                     
     1   .000     23  2.300                                                     
     1   .000     23  2.300                                                     
     2   .000     23  2.300                                                     
     3  -.100      7  2.300                                                     
  local pseudopotential read in
  partial core-charges read in
  atomic valenz-charges read in
  non local Contribution for L=           0  read in
    real space projection operators read in
  non local Contribution for L=           0  read in
    real space projection operators read in
  non local Contribution for L=           1  read in
    real space projection operators read in
  non local Contribution for L=           1  read in
    real space projection operators read in
  non local Contribution for L=           2  read in
    real space projection operators read in
    PAW grid and wavefunctions read in

   number of l-projection  operators is LMAX  =           5
   number of lm-projection operators is LMMAX =          13

 POTCAR:   PAW_PBE Te 08Apr2002                   
   VRHFIN =Te: s2p4                                                             
   LEXCH  = PE                                                                  
   EATOM  =   223.2721 eV,   16.4100 Ry                                         
                                                                                
   TITEL  = PAW_PBE Te 08Apr2002                                                
   LULTRA =        F    use ultrasoft PP ?                                      
   IUNSCR =        1    unscreen: 0-lin 1-nonlin 2-no                           
   RPACOR =    2.200    partial core radius                                     
   POMASS =  127.600; ZVAL   =    6.000    mass and valenz                      
   RCORE  =    2.300    outmost cutoff radius                                   
   RWIGS  =    2.900; RWIGS  =    1.535    wigner-seitz radius (au A)           
   ENMAX  =  174.982; ENMIN  =  131.236 eV                                      
   ICORE  =        3    local potential                                         
   LCOR   =        T    correct aug charges                                     
   LPAW   =        T    paw PP                                                  
   EAUG   =  368.792                                                            
   DEXC   =    -.169                                                            
   RMAX   =    3.486    core radius for proj-oper                               
   RAUG   =    1.300    factor for augmentation sphere                          
   RDEP   =    2.397    radius for radial grids                                 
   QCUT   =   -3.586; QGAM   =    7.172    optimization parameters              
                                                                                
   Description                                                                  
     l     E      TYP  RCUT    TYP  RCUT                                        
     0   .000     23  2.300                                                     
     0   .000     23  2.300                                                     
     1   .000     23  2.300                                                     
     1   .000     23  2.300                                                     
     2   .000     23  2.300                                                     
     3  -.100     23  2.300                                                     
  local pseudopotential read in
  partial core-charges read in
  atomic valenz-charges read in
  non local Contribution for L=           0  read in
    real space projection operators read in
  non local Contribution for L=           0  read in
    real space projection operators read in
  non local Contribution for L=           1  read in
    real space projection operators read in
  non local Contribution for L=           1  read in
    real space projection operators read in
  non local Contribution for L=           2  read in
    real space projection operators read in
    PAW grid and wavefunctions read in

   number of l-projection  operators is LMAX  =           5
   number of lm-projection operators is LMMAX =          13

 Optimization of the real space projectors (new method)

 maximal supplied QI-value         = 15.12
 optimisation between [QCUT,QGAM] = [ 11.64, 23.28] = [ 37.95,151.78] Ry 
 Optimized for a Real-space Cutoff    1.49 Angstroem

   l    n(q)    QCUT    max X(q) W(low)/X(q) W(high)/X(q)  e(spline) 
   2      9    11.641     4.777    0.25E-04    0.21E-05    0.63E-07
   2      9    11.641    31.132    0.13E-03    0.22E-03    0.64E-06
   0     10    11.641    20.416    0.11E-04    0.74E-05    0.19E-07
   0     10    11.641    45.408    0.10E-03    0.85E-04    0.30E-06
   1     10    11.641     7.848    0.22E-04    0.23E-04    0.56E-07
   1     10    11.641     9.895    0.85E-04    0.54E-04    0.16E-06
 Optimization of the real space projectors (new method)

 maximal supplied QI-value         = 19.84
 optimisation between [QCUT,QGAM] = [ 11.51, 23.22] = [ 37.09,150.92] Ry 
 Optimized for a Real-space Cutoff    1.21 Angstroem

   l    n(q)    QCUT    max X(q) W(low)/X(q) W(high)/X(q)  e(spline) 
   0      8    11.508     6.651    0.19E-04    0.31E-05    0.49E-08
   0      8    11.508    90.285    0.95E-04    0.17E-03    0.51E-07
   1      8    11.508     4.328    0.14E-04    0.32E-04    0.22E-07
   1      8    11.508    54.583    0.16E-03    0.71E-04    0.89E-07
 Optimization of the real space projectors (new method)

 maximal supplied QI-value         = 16.25
 optimisation between [QCUT,QGAM] = [ 11.54, 23.24] = [ 37.28,151.24] Ry 
 Optimized for a Real-space Cutoff    1.28 Angstroem

   l    n(q)    QCUT    max X(q) W(low)/X(q) W(high)/X(q)  e(spline) 
   0      9    11.539     8.651    0.22E-04    0.16E-04    0.10E-07
   0      9    11.539    33.192    0.11E-03    0.16E-03    0.65E-07
   1      8    11.539     5.899    0.37E-04    0.28E-04    0.43E-07
   1      8    11.539    27.289    0.22E-03    0.28E-04    0.14E-06
   2      8    11.539     4.673    0.11E-03    0.18E-03    0.58E-07
 Optimization of the real space projectors (new method)

 maximal supplied QI-value         = 16.25
 optimisation between [QCUT,QGAM] = [ 11.54, 23.24] = [ 37.28,151.24] Ry 
 Optimized for a Real-space Cutoff    1.36 Angstroem

   l    n(q)    QCUT    max X(q) W(low)/X(q) W(high)/X(q)  e(spline) 
   0      9    11.539     7.090    0.13E-04    0.25E-05    0.51E-08
   0      9    11.539   101.654    0.53E-04    0.69E-04    0.12E-06
   1      9    11.539     5.276    0.20E-04    0.98E-05    0.24E-07
   1      9    11.539    81.891    0.24E-03    0.13E-04    0.15E-06
   2      9    11.539     5.599    0.30E-04    0.97E-04    0.54E-07

 ----------------------------------------------------------------------------- 
|                                                                             |
|  ADVICE TO THIS USER RUNNING 'VASP/VAMP'   (HEAR YOUR MASTER'S VOICE ...):  |
|                                                                             |
|      You enforced a specific xc-type in the INCAR file,                     |
|      a different type was found on the POTCAR file                          |
|          I HOPE YOU KNOW, WHAT YOU ARE  DOING                               |
|                                                                             |
 ----------------------------------------------------------------------------- 

 PAW_PBE Cr 06Sep2000                   :
 energy of atom  1       EATOM= -276.9744
 kinetic energy error for atom=    0.0010 (will be added to EATOM!!)
  PAW_PBE P 17Jan2003                   :
 energy of atom  2       EATOM= -176.0430
 kinetic energy error for atom=    0.0011 (will be added to EATOM!!)
 PAW_PBE Ge 05Jan2001                   :
 energy of atom  3       EATOM= -104.9960
 kinetic energy error for atom=    0.0002 (will be added to EATOM!!)
 PAW_PBE Te 08Apr2002                   :
 energy of atom  4       EATOM= -223.2721
 kinetic energy error for atom=    0.0007 (will be added to EATOM!!)


 POSCAR: Cr2 P Ge Te6                            
  positions in direct lattice
  velocities in cartesian coordinates
  No initial velocities read in
 exchange correlation table for  LEXCH =       42
   RHO(1)=    0.500       N(1)  =     2000
   RHO(2)=  100.500       N(2)  =     4000



--------------------------------------------------------------------------------------------------------


 ion  position               nearest neighbor table
   1  0.333  0.333  0.500-   6 2.78   5 2.78   7 2.78   8 2.78  10 2.78   9 2.78
   2  0.667  0.667  0.500-   9 2.78   8 2.78  10 2.78   5 2.78   7 2.78   6 2.78
   3  0.000  0.000  0.448-   4 2.43   8 2.63  10 2.63   9 2.63
   4  0.000  0.000  0.552-   3 2.43   5 2.63   7 2.63   6 2.63
   5  0.626  0.000  0.574-   4 2.63   1 2.78   2 2.78
   6  0.000  0.373  0.574-   4 2.63   1 2.78   2 2.78
   7  0.373  0.626  0.574-   4 2.63   1 2.78   2 2.78
   8  0.374  1.000  0.426-   3 2.63   2 2.78   1 2.78
   9  1.000  0.627  0.426-   3 2.63   2 2.78   1 2.78
  10  0.627  0.374  0.426-   3 2.63   2 2.78   1 2.78

  LATTYP: Found a hexagonal cell.
 ALAT       =     6.9077769333
 C/A-ratio  =     3.3939410937
  
  Lattice vectors:
  
 A1 = (   3.4538890000,  -5.9823100000,   0.0000000000)
 A2 = (  -6.9077770000,   0.0000000000,   0.0000000000)
 A3 = (   0.0000000000,   0.0000000000, -23.4445880000)


Analysis of symmetry for initial positions (statically):
=====================================================================
 Subroutine PRICEL returns:
 Original cell was already a primitive cell.
 

 Routine SETGRP: Setting up the symmetry group for a 
 hexagonal supercell.


 Subroutine GETGRP returns: Found  3 space group operations
 (whereof  3 operations were pure point group operations)
 out of a pool of 24 trial point group operations.


The static configuration has the point symmetry C_3 .


Analysis of symmetry for dynamics (positions and initial velocities):
=====================================================================
 Subroutine PRICEL returns:
 Original cell was already a primitive cell.
 

 Routine SETGRP: Setting up the symmetry group for a 
 hexagonal supercell.


 Subroutine GETGRP returns: Found  3 space group operations
 (whereof  3 operations were pure point group operations)
 out of a pool of 24 trial point group operations.


The dynamic configuration has the point symmetry C_3 .


Analysis of constrained symmetry for selective dynamics:
=====================================================================
 Subroutine PRICEL returns:
 Original cell was already a primitive cell.
 

 Routine SETGRP: Setting up the symmetry group for a 
 hexagonal supercell.


 Subroutine GETGRP returns: Found  3 space group operations
 (whereof  3 operations were pure point group operations)
 out of a pool of 24 trial point group operations.


The constrained configuration has the point symmetry C_3 .


Analysis of structural, dynamic, and magnetic symmetry:
=====================================================================
 Subroutine PRICEL returns:
 Original cell was already a primitive cell.
 

 Routine SETGRP: Setting up the symmetry group for a 
 hexagonal supercell.


 Subroutine GETGRP returns: Found  3 space group operations
 (whereof  3 operations were pure point group operations)
 out of a pool of 24 trial point group operations.


The magnetic configuration has the point symmetry C_3 .


 Subroutine INISYM returns: Found  3 space group operations
 (whereof  3 operations are pure point group operations),
 and found     1 'primitive' translations



 KPOINTS: Kpoints from vasprun.xml                

Automatic generation of k-mesh.
Space group operators:
 irot       det(A)        alpha          n_x          n_y          n_z        tau_x        tau_y        tau_z
    1     1.000000     0.000000     1.000000     0.000000     0.000000     0.000000     0.000000     0.000000
    2     1.000000   120.000000     0.000000     0.000000     1.000000     0.000000     0.000000     0.000000
    3     1.000000   120.000000     0.000000     0.000000    -1.000000     0.000000     0.000000     0.000000
 
 Subroutine IBZKPT returns following result:
 ===========================================
 
 Found      5 irreducible k-points:
 
 Following reciprocal coordinates:
            Coordinates               Weight
  0.000000  0.000000  0.000000      1.000000
  0.200000  0.000000  0.000000      6.000000
  0.400000  0.000000  0.000000      6.000000
  0.400000  0.200000  0.000000      6.000000
 -0.400000  0.200000  0.000000      6.000000
 
 Following cartesian coordinates:
            Coordinates               Weight
  0.000000  0.000000  0.000000      1.000000
  0.028953 -0.016716  0.000000      6.000000
  0.057906 -0.033432  0.000000      6.000000
  0.057906  0.000000  0.000000      6.000000
 -0.057906  0.066864  0.000000      6.000000
 
 TETIRR: Found     15 inequivalent tetrahedra from      150


--------------------------------------------------------------------------------------------------------




 Dimension of arrays:
   k-points           NKPTS =      5   k-points in BZ     NKDIM =      5   number of bands    NBANDS=     48
   number of dos      NEDOS =    301   number of ions     NIONS =     10
   non local maximal  LDIM  =      6   non local SUM 2l+1 LMDIM =     18
   total plane-waves  NPLWV = 524880
   max r-space proj   IRMAX =   7543   max aug-charges    IRDMAX=  31706
   dimension x,y,z NGX =    54 NGY =   54 NGZ =  180
   dimension x,y,z NGXF=   108 NGYF=  108 NGZF=  360
   support grid    NGXF=   108 NGYF=  108 NGZF=  360
   ions per type =               2   1   1   6
   NGX,Y,Z   is equivalent  to a cutoff of  13.00, 13.00, 12.76 a.u.
   NGXF,Y,Z  is equivalent  to a cutoff of  25.99, 25.99, 25.53 a.u.

 SYSTEM =  unknown system                          
 POSCAR =  Cr2 P Ge Te6                            

 Startparameter for this run:
   NWRITE =      2    write-flag & timer
   PREC   = accura    normal or accurate (medium, high low for compatibility)
   ISTART =      0    job   : 0-new  1-cont  2-samecut
   ICHARG =      2    charge: 1-file 2-atom 10-const
   ISPIN  =      2    spin polarized calculation?
   LNONCOLLINEAR =      F non collinear calculations
   LSORBIT =      F    spin-orbit coupling
   INIWAV =      1    electr: 0-lowe 1-rand  2-diag
   LASPH  =      F    aspherical Exc in radial PAW
   METAGGA=      F    non-selfconsistent MetaGGA calc.

 Electronic Relaxation 1
   ENCUT  =  520.0 eV  38.22 Ry    6.18 a.u.  12.84 12.84 43.59*2*pi/ulx,y,z
   ENINI  =  520.0     initial cutoff
   ENAUG  =  402.1 eV  augmentation charge cutoff
   NELM   =    400;   NELMIN=  2; NELMDL=  0     # of ELM steps 
   EDIFF  = 0.1E-03   stopping-criterion for ELM
   LREAL  =      T    real-space projection
   NLSPLINE    = F    spline interpolate recip. space projectors
   LCOMPAT=      F    compatible to vasp.4.4
   GGA_COMPAT  = T    GGA compatible to vasp.4.4-vasp.4.6
   LMAXPAW     = -100 max onsite density
   LMAXMIX     =    2 max onsite mixed and CHGCAR
   VOSKOWN=      0    Vosko Wilk Nusair interpolation
   ROPT   =   -0.00025  -0.00025  -0.00025  -0.00025
 Ionic relaxation
   EDIFFG = 0.1E-02   stopping-criterion for IOM
   NSW    =     99    number of steps for IOM
   NBLOCK =      1;   KBLOCK =     99    inner block; outer block 
   IBRION =      2    ionic relax: 0-MD 1-quasi-New 2-CG
   NFREE  =      1    steps in history (QN), initial steepest desc. (CG)
   ISIF   =      3    stress and relaxation
   IWAVPR =     11    prediction:  0-non 1-charg 2-wave 3-comb
   ISYM   =      2    0-nonsym 1-usesym 2-fastsym
   LCORR  =      T    Harris-Foulkes like correction to forces

   POTIM  = 0.5000    time-step for ionic-motion
   TEIN   =    0.0    initial temperature
   TEBEG  =    0.0;   TEEND  =   0.0 temperature during run
   SMASS  =  -3.00    Nose mass-parameter (am)
   estimated Nose-frequenzy (Omega)   =  0.10E-29 period in steps =****** mass=  -0.109E-26a.u.
   SCALEE = 1.0000    scale energy and forces
   NPACO  =    256;   APACO  = 16.0  distance and # of slots for P.C.
   PSTRESS=    0.0 pullay stress

  Mass of Ions in am
   POMASS =  52.00 30.97 72.61127.60
  Ionic Valenz
   ZVAL   =   6.00  5.00  4.00  6.00
  Atomic Wigner-Seitz radii
   RWIGS  =  -1.00 -1.00 -1.00 -1.00
  virtual crystal weights 
   VCA    =   1.00  1.00  1.00  1.00
   NELECT =      57.0000    total number of electrons
   NUPDOWN=      -1.0000    fix difference up-down

 DOS related values:
   EMIN   =  10.00;   EMAX   =-10.00  energy-range for DOS
   EFERMI =   0.00
   ISMEAR =    -5;   SIGMA  =   0.05  broadening in eV -4-tet -1-fermi 0-gaus

 Electronic relaxation 2 (details)
   IALGO  =     38    algorithm
   LDIAG  =      T    sub-space diagonalisation (order eigenvalues)
   LSUBROT=      F    optimize rotation matrix (better conditioning)
   TURBO    =      0    0=normal 1=particle mesh
   IRESTART =      0    0=no restart 2=restart with 2 vectors
   NREBOOT  =      0    no. of reboots
   NMIN     =      0    reboot dimension
   EREF     =   0.00    reference energy to select bands
   IMIX   =      4    mixing-type and parameters
     AMIX     =   0.40;   BMIX     =  1.00
     AMIX_MAG =   1.60;   BMIX_MAG =  1.00
     AMIN     =   0.01
     WC   =   100.;   INIMIX=   1;  MIXPRE=   1;  MAXMIX= -45

 Intra band minimization:
   WEIMIN = 0.0010     energy-eigenvalue tresh-hold
   EBREAK =  0.52E-06  absolut break condition
   DEPER  =   0.30     relativ break condition  

   TIME   =   0.40     timestep for ELM

  volume/ion in A,a.u.               =      96.88       653.80
  Fermi-wavevector in a.u.,A,eV,Ry     =   0.636722  1.203230  5.516004  0.405415
  Thomas-Fermi vector in A             =   1.701488

 Write flags
   LWAVE        =      F    write WAVECAR
   LDOWNSAMPLE  =      F    k-point downsampling of WAVECAR
   LCHARG       =      T    write CHGCAR
   LVTOT        =      F    write LOCPOT, total local potential
   LVHAR        =      F    write LOCPOT, Hartree potential only
   LELF         =      F    write electronic localiz. function (ELF)
   LORBIT       =     11    0 simple, 1 ext, 2 COOP (PROOUT), +10 PAW based schemes


 Dipole corrections
   LMONO  =      F    monopole corrections only (constant potential shift)
   LDIPOL =      F    correct potential (dipole corrections)
   IDIPOL =      0    1-x, 2-y, 3-z, 4-all directions 
   EPSILON=  1.0000000 bulk dielectric constant

 Exchange correlation treatment:
   GGA     =    BO    GGA type
   LEXCH   =    42    internal setting for exchange type
   VOSKOWN=      0    Vosko Wilk Nusair interpolation
   LHFCALC =     F    Hartree Fock is set to
   LHFONE  =     F    Hartree Fock one center treatment
   AEXX    =    0.0000 exact exchange contribution

 vdW DFT:
   LUSE_VDW   =     T    switch on vdW DFT
   Zab_VDW    =-.8491    correlation parameter
   PARAM1     =0.1833
   PARAM2     =0.2200
   PARAM3     =0.0000
   -- rVV10 --
   BPARAM     = 6.3000
   CPARAM     = 0.0093

 Linear response parameters
   LEPSILON=     F    determine dielectric tensor
   LRPA    =     F    only Hartree local field effects (RPA)
   LNABLA  =     F    use nabla operator in PAW spheres
   LVEL    =     F    velocity operator in full k-point grid
   LINTERFAST=   F  fast interpolation
   KINTER  =     0    interpolate to denser k-point grid
   CSHIFT  =0.1000    complex shift for real part using Kramers Kronig
   OMEGAMAX=  -1.0    maximum frequency
   DEG_THRESHOLD= 0.2000000E-02 threshold for treating states as degnerate
   RTIME   =   -0.100 relaxation time in fs
  (WPLASMAI=    0.000 imaginary part of plasma frequency in eV, 0.658/RTIME)
   DFIELD  = 0.0000000 0.0000000 0.0000000 field for delta impulse in time

 Orbital magnetization related:
   ORBITALMAG=     F  switch on orbital magnetization
   LCHIMAG   =     F  perturbation theory with respect to B field
   DQ        =  0.001000  dq finite difference perturbation B field
   LLRAUG    =     F  two centre corrections for induced B field



--------------------------------------------------------------------------------------------------------


 conjugate gradient relaxation of ions
   using selective dynamics as specified on POSCAR
 charge density and potential will be updated during run
 spin polarized calculation
 Variant of blocked Davidson
 Davidson routine will perform the subspace rotation
 perform sub-space diagonalisation
    after iterative eigenvector-optimisation
 modified Broyden-mixing scheme, WC =      100.0
 initial mixing is a Kerker type mixing with AMIX =  0.4000 and BMIX =      1.0000
 Hartree-type preconditioning will be used
 using additional bands           19
 real space projection scheme for non local part
 use partial core corrections
 calculate Harris-corrections to forces   (improved forces if not selfconsistent)
 use gradient corrections 
 use of overlap-Matrix (Vanderbilt PP)
 Fermi weights with tetrahedron method with Bloechl corrections


--------------------------------------------------------------------------------------------------------


  energy-cutoff  :      520.00
  volume of cell :      968.84
      direct lattice vectors                 reciprocal lattice vectors
     6.907777000 -0.000000000  0.000000000     0.144764372 -0.083579742  0.000000000
     3.453888000  5.982310000  0.000000000     0.000000000  0.167159509 -0.000000000
     0.000000000  0.000000000 23.444588000    -0.000000000  0.000000000  0.042653767

  length of vectors
     6.907777000  6.907776433 23.444588000     0.167159495  0.167159509  0.042653767



 k-points in units of 2pi/SCALE and weight: Kpoints from vasprun.xml                
   0.00000000  0.00000000  0.00000000       0.040
   0.02895287 -0.01671595  0.00000000       0.240
   0.05790575 -0.03343190  0.00000000       0.240
   0.05790575  0.00000000  0.00000000       0.240
  -0.05790575  0.06686380  0.00000000       0.240

 k-points in reciprocal lattice and weights: Kpoints from vasprun.xml                
   0.00000000  0.00000000  0.00000000       0.040
   0.20000000  0.00000000  0.00000000       0.240
   0.40000000  0.00000000  0.00000000       0.240
   0.40000000  0.20000000  0.00000000       0.240
  -0.40000000  0.20000000  0.00000000       0.240

 position of ions in fractional coordinates (direct lattice) 
   0.33333300  0.33333300  0.49992500
   0.66666700  0.66666700  0.50007500
   0.00000000  0.00000000  0.44821600
   0.00000000  0.00000000  0.55178400
   0.62635700  0.00042000  0.57375200
   0.00042000  0.37322400  0.57375200
   0.37322400  0.62635700  0.57375200
   0.37364300  0.99958000  0.42624800
   0.99958000  0.62677600  0.42624800
   0.62677600  0.37364300  0.42624800

 position of ions in cartesian coordinates  (Angst):
   3.45388488  1.99410134 11.72053566
   6.90778012  3.98820866 11.72405234
   0.00000000  0.00000000 10.50823946
   0.00000000  0.00000000 12.93634854
   4.32818511  0.00251257 13.45137925
   1.29197516  2.23274167 13.45137925
   4.74151509  3.74706174 13.45137925
   6.03347989  5.97979743  9.99320875
   9.06968984  3.74956833  9.99320875
   5.62014991  2.23524826  9.99320875



--------------------------------------------------------------------------------------------------------


 k-point  1 :   0.0000 0.0000 0.0000  plane waves:   26073
 k-point  2 :   0.2000 0.0000 0.0000  plane waves:   26070
 k-point  3 :   0.4000 0.0000 0.0000  plane waves:   26086
 k-point  4 :   0.4000 0.2000 0.0000  plane waves:   26085
 k-point  5 :  -0.4000 0.2000 0.0000  plane waves:   26115

 maximum and minimum number of plane-waves per node :     26115    26070

 maximum number of plane-waves:     26115
 maximum index in each direction: 
   IXMAX=   13   IYMAX=   12   IZMAX=   43
   IXMIN=  -13   IYMIN=  -13   IZMIN=  -43


 serial   3D FFT for wavefunctions
 parallel 3D FFT for charge:
    minimum data exchange during FFTs selected (reduces bandwidth)


 total amount of memory used by VASP MPI-rank0   130713. kBytes
=======================================================================

   base      :      30000. kBytes
   nonlr-proj:       8213. kBytes
   fftplans  :      11247. kBytes
   grid      :      68332. kBytes
   one-center:        311. kBytes
   wavefun   :      12610. kBytes

     INWAV:  cpu time    0.0000: real time    0.0004
 Broyden mixing: mesh for mixing (old mesh)
   NGX = 25   NGY = 25   NGZ = 87
  (NGX  =108   NGY  =108   NGZ  =360)
  gives a total of  54375 points

 initial charge density was supplied:
 charge density of overlapping atoms calculated
 number of electron      57.0000000 magnetization      14.8000000
 keeping initial charge density in first step


--------------------------------------------------------------------------------------------------------


 Maximum index for non-local projection operator         7247
 Maximum index for augmentation-charges         2278 (set IRDMAX)


--------------------------------------------------------------------------------------------------------


 First call to EWALD:  gamma=   0.179
 Maximum number of real-space cells 4x 4x 1
 Maximum number of reciprocal cells 2x 2x 6

    FEWALD:  cpu time    0.0000: real time    0.0014


--------------------------------------- Iteration      1(   1)  ---------------------------------------


vdW kernel read from vdw_kernel.bindat
  0.0000  0.2424  0.5071  0.7962  1.1119  1.4567  1.8333  2.2446  2.6937  3.1842
  3.7199  4.3049  4.9438  5.6415  6.4036  7.2358  8.1446  9.1372 10.2212 11.4050
 12.6979 14.1099 15.6519 17.3360 19.1751 21.1837 23.3773 25.7729 28.3892 31.2465
 34.3669 37.7748 41.4965 45.5611 50.0000

    POTLOK:  cpu time   52.8040: real time   52.9380
    SETDIJ:  cpu time    0.0520: real time    0.0518
     EDDAV:  cpu time   22.4360: real time   22.9629
 BZINTS: Fermi energy:  6.263293; 57.000000 electrons
         Band energy:  29.971436;  BLOECHL correction: -0.040545
       DOS:  cpu time    0.0040: real time    0.0049
    --------------------------------------------
      LOOP:  cpu time   75.2960: real time   75.9575

 eigenvalue-minimisations  :   960
 total energy-change (2. order) : 0.3883408E+03  (-0.1644452E+04)
 number of electron      57.0000000 magnetization      14.8000000
 augmentation part       57.0000000 magnetization      14.8000000

 Free energy of the ion-electron system (eV)
  ---------------------------------------------------
  alpha Z        PSCENC =        13.62040840
  Ewald energy   TEWEN  =      6221.61188061
  -Hartree energ DENC   =     -8151.90115098
  -exchange      EXHF   =         0.00000000
  -V(xc)+E(xc)   XCENC  =      -215.52439230
  PAW double counting   =      1166.33076898     -861.12977315
  entropy T*S    EENTRO =         0.00000000
  eigenvalues    EBANDS =        29.97143647
  atomic energy  EATOM  =      2185.36163785
  Solvation  Ediel_sol  =         0.00000000
  ---------------------------------------------------
  free energy    TOTEN  =       388.34081589 eV

  energy without entropy =      388.34081589  energy(sigma->0) =      388.34081589


--------------------------------------------------------------------------------------------------------




--------------------------------------- Iteration      1(   2)  ---------------------------------------


     EDDAV:  cpu time   27.1920: real time   27.7525
 BZINTS: Fermi energy: -0.432361; 57.000000 electrons
         Band energy:-348.620199;  BLOECHL correction: -0.115343
       DOS:  cpu time    0.0080: real time    0.0063
    --------------------------------------------
      LOOP:  cpu time   27.2000: real time   27.7588

 eigenvalue-minimisations  :  1184
 total energy-change (2. order) :-0.3785916E+03  (-0.3506964E+03)
 number of electron      57.0000000 magnetization      14.8000000
 augmentation part       57.0000000 magnetization      14.8000000

 Free energy of the ion-electron system (eV)
  ---------------------------------------------------
  alpha Z        PSCENC =        13.62040840
  Ewald energy   TEWEN  =      6221.61188061
  -Hartree energ DENC   =     -8151.90115098
  -exchange      EXHF   =         0.00000000
  -V(xc)+E(xc)   XCENC  =      -215.52439230
  PAW double counting   =      1166.33076898     -861.12977315
  entropy T*S    EENTRO =         0.00000000
  eigenvalues    EBANDS =      -348.62019897
  atomic energy  EATOM  =      2185.36163785
  Solvation  Ediel_sol  =         0.00000000
  ---------------------------------------------------
  free energy    TOTEN  =         9.74918044 eV

  energy without entropy =        9.74918044  energy(sigma->0) =        9.74918044


--------------------------------------------------------------------------------------------------------




--------------------------------------- Iteration      1(   3)  ---------------------------------------


     EDDAV:  cpu time   29.8960: real time   30.6000
 BZINTS: Fermi energy: -1.859758; 57.000000 electrons
         Band energy:-399.021226;  BLOECHL correction: -0.024314
       DOS:  cpu time    0.0040: real time    0.0045
    --------------------------------------------
      LOOP:  cpu time   29.9000: real time   30.6045

 eigenvalue-minimisations  :  1312
 total energy-change (2. order) :-0.5040103E+02  (-0.4891793E+02)
 number of electron      57.0000000 magnetization      14.8000000
 augmentation part       57.0000000 magnetization      14.8000000

 Free energy of the ion-electron system (eV)
  ---------------------------------------------------
  alpha Z        PSCENC =        13.62040840
  Ewald energy   TEWEN  =      6221.61188061
  -Hartree energ DENC   =     -8151.90115098
  -exchange      EXHF   =         0.00000000
  -V(xc)+E(xc)   XCENC  =      -215.52439230
  PAW double counting   =      1166.33076898     -861.12977315
  entropy T*S    EENTRO =         0.00000000
  eigenvalues    EBANDS =      -399.02122560
  atomic energy  EATOM  =      2185.36163785
  Solvation  Ediel_sol  =         0.00000000
  ---------------------------------------------------
  free energy    TOTEN  =       -40.65184618 eV

  energy without entropy =      -40.65184618  energy(sigma->0) =      -40.65184618


--------------------------------------------------------------------------------------------------------




--------------------------------------- Iteration      1(   4)  ---------------------------------------


     EDDAV:  cpu time   29.9280: real time   30.0192
 BZINTS: Fermi energy: -1.955676; 57.000000 electrons
         Band energy:-401.424042;  BLOECHL correction: -0.020240
       DOS:  cpu time    0.0040: real time    0.0064
    --------------------------------------------
      LOOP:  cpu time   29.9320: real time   30.0255

 eigenvalue-minimisations  :  1296
 total energy-change (2. order) :-0.2402816E+01  (-0.2384698E+01)
 number of electron      57.0000000 magnetization      14.8000000
 augmentation part       57.0000000 magnetization      14.8000000

 Free energy of the ion-electron system (eV)
  ---------------------------------------------------
  alpha Z        PSCENC =        13.62040840
  Ewald energy   TEWEN  =      6221.61188061
  -Hartree energ DENC   =     -8151.90115098
  -exchange      EXHF   =         0.00000000
  -V(xc)+E(xc)   XCENC  =      -215.52439230
  PAW double counting   =      1166.33076898     -861.12977315
  entropy T*S    EENTRO =         0.00000000
  eigenvalues    EBANDS =      -401.42404153
  atomic energy  EATOM  =      2185.36163785
  Solvation  Ediel_sol  =         0.00000000
  ---------------------------------------------------
  free energy    TOTEN  =       -43.05466212 eV

  energy without entropy =      -43.05466212  energy(sigma->0) =      -43.05466212


--------------------------------------------------------------------------------------------------------




--------------------------------------- Iteration      1(   5)  ---------------------------------------


     EDDAV:  cpu time   34.0720: real time   34.1330
 BZINTS: Fermi energy: -1.960901; 57.000000 electrons
         Band energy:-401.506364;  BLOECHL correction: -0.019834
       DOS:  cpu time    0.0040: real time    0.0058
    CHARGE:  cpu time    1.9600: real time    1.9604
    MIXING:  cpu time    0.0600: real time    0.0611
    --------------------------------------------
      LOOP:  cpu time   36.0960: real time   36.1603

 eigenvalue-minimisations  :  1488
 total energy-change (2. order) :-0.8232270E-01  (-0.8231692E-01)
 number of electron      57.0000000 magnetization      13.8995799
 augmentation part       -4.6715569 magnetization      10.9592949

 Broyden mixing:
  rms(total) = 0.14649E+01    rms(broyden)= 0.14649E+01
  rms(prec ) = 0.15489E+01
  weight for this iteration     100.00

 Free energy of the ion-electron system (eV)
  ---------------------------------------------------
  alpha Z        PSCENC =        13.62040840
  Ewald energy   TEWEN  =      6221.61188061
  -Hartree energ DENC   =     -8151.90115098
  -exchange      EXHF   =         0.00000000
  -V(xc)+E(xc)   XCENC  =      -215.52439230
  PAW double counting   =      1166.33076898     -861.12977315
  entropy T*S    EENTRO =         0.00000000
  eigenvalues    EBANDS =      -401.50636424
  atomic energy  EATOM  =      2185.36163785
  Solvation  Ediel_sol  =         0.00000000
  ---------------------------------------------------
  free energy    TOTEN  =       -43.13698482 eV

  energy without entropy =      -43.13698482  energy(sigma->0) =      -43.13698482


--------------------------------------------------------------------------------------------------------




--------------------------------------- Iteration      1(   6)  ---------------------------------------


    POTLOK:  cpu time   52.3400: real time   52.4813
    SETDIJ:  cpu time    0.0480: real time    0.0484
     EDDAV:  cpu time   32.4600: real time   33.2475
 BZINTS: Fermi energy: -3.268220; 57.000000 electrons
         Band energy:-431.126521;  BLOECHL correction: -0.018591
       DOS:  cpu time    0.0080: real time    0.0052
    CHARGE:  cpu time    1.9920: real time    1.9936
    MIXING:  cpu time    0.0400: real time    0.0416
    --------------------------------------------
      LOOP:  cpu time   86.8880: real time   87.8177

 eigenvalue-minimisations  :  1456
 total energy-change (2. order) :-0.4255990E+01  (-0.2539914E+01)
 number of electron      56.9999998 magnetization      13.5941152
 augmentation part        1.2256962 magnetization      11.3840137

 Broyden mixing:
  rms(total) = 0.25434E+01    rms(broyden)= 0.25434E+01
  rms(prec ) = 0.28780E+01
  weight for this iteration     100.00

 eigenvalues of (default mixing * dielectric matrix)
  average eigenvalue GAMMA=   0.4122
  0.4122

 Free energy of the ion-electron system (eV)
  ---------------------------------------------------
  alpha Z        PSCENC =        13.62040840
  Ewald energy   TEWEN  =      6221.61188061
  -Hartree energ DENC   =     -8128.97755820
  -exchange      EXHF   =         0.00000000
  -V(xc)+E(xc)   XCENC  =      -217.27771930
  PAW double counting   =      1157.56643085     -848.17153334
  entropy T*S    EENTRO =         0.00000000
  eigenvalues    EBANDS =      -431.12652122
  atomic energy  EATOM  =      2185.36163785
  Solvation  Ediel_sol  =         0.00000000
  ---------------------------------------------------
  free energy    TOTEN  =       -47.39297435 eV

  energy without entropy =      -47.39297435  energy(sigma->0) =      -47.39297435


--------------------------------------------------------------------------------------------------------




--------------------------------------- Iteration      1(   7)  ---------------------------------------


    POTLOK:  cpu time   51.8040: real time   52.5163
    SETDIJ:  cpu time    0.0600: real time    0.0586
     EDDAV:  cpu time   28.9760: real time   30.1710
 BZINTS: Fermi energy: -1.890865; 57.000000 electrons
         Band energy:-395.112446;  BLOECHL correction: -0.027909
       DOS:  cpu time    0.0040: real time    0.0068
    CHARGE:  cpu time    1.9840: real time    1.9843
    MIXING:  cpu time    0.0440: real time    0.0452
    --------------------------------------------
      LOOP:  cpu time   82.8720: real time   84.7821

 eigenvalue-minimisations  :  1312
 total energy-change (2. order) : 0.6288544E+01  (-0.6565421E+01)
 number of electron      57.0000000 magnetization      12.9510255
 augmentation part       -4.1278033 magnetization      10.2394763

 Broyden mixing:
  rms(total) = 0.91058E+00    rms(broyden)= 0.91056E+00
  rms(prec ) = 0.97576E+00
  weight for this iteration     100.00

 eigenvalues of (default mixing * dielectric matrix)
  average eigenvalue GAMMA=   0.5038
  0.7670  0.2406

 Free energy of the ion-electron system (eV)
  ---------------------------------------------------
  alpha Z        PSCENC =        13.62040840
  Ewald energy   TEWEN  =      6221.61188061
  -Hartree energ DENC   =     -8153.89029332
  -exchange      EXHF   =         0.00000000
  -V(xc)+E(xc)   XCENC  =      -217.60798910
  PAW double counting   =      1209.15218354     -904.23981232
  entropy T*S    EENTRO =         0.00000000
  eigenvalues    EBANDS =      -395.11244569
  atomic energy  EATOM  =      2185.36163785
  Solvation  Ediel_sol  =         0.00000000
  ---------------------------------------------------
  free energy    TOTEN  =       -41.10443001 eV

  energy without entropy =      -41.10443001  energy(sigma->0) =      -41.10443001


--------------------------------------------------------------------------------------------------------




--------------------------------------- Iteration      1(   8)  ---------------------------------------


    POTLOK:  cpu time   51.9040: real time   52.1192
    SETDIJ:  cpu time    0.0560: real time    0.0550
     EDDAV:  cpu time   30.0560: real time   30.1633
 BZINTS: Fermi energy: -2.010140; 57.000000 electrons
         Band energy:-398.210597;  BLOECHL correction: -0.028143
       DOS:  cpu time    0.0040: real time    0.0065
    CHARGE:  cpu time    1.9600: real time    1.9618
    MIXING:  cpu time    0.0440: real time    0.0433
    --------------------------------------------
      LOOP:  cpu time   84.0240: real time   84.3492

 eigenvalue-minimisations  :  1312
 total energy-change (2. order) :-0.6922513E-02  (-0.3280845E+00)
 number of electron      56.9999999 magnetization      11.4337736
 augmentation part       -3.6455983 magnetization       9.0626380

 Broyden mixing:
  rms(total) = 0.56472E+00    rms(broyden)= 0.56472E+00
  rms(prec ) = 0.58964E+00
  weight for this iteration     100.00

 eigenvalues of (default mixing * dielectric matrix)
  average eigenvalue GAMMA=   0.7727
  0.2608  1.0286  1.0286

 Free energy of the ion-electron system (eV)
  ---------------------------------------------------
  alpha Z        PSCENC =        13.62040840
  Ewald energy   TEWEN  =      6221.61188061
  -Hartree energ DENC   =     -8151.10272658
  -exchange      EXHF   =         0.00000000
  -V(xc)+E(xc)   XCENC  =      -217.30847042
  PAW double counting   =      1215.52154786     -910.60503339
  entropy T*S    EENTRO =         0.00000000
  eigenvalues    EBANDS =      -398.21059686
  atomic energy  EATOM  =      2185.36163785
  Solvation  Ediel_sol  =         0.00000000
  ---------------------------------------------------
  free energy    TOTEN  =       -41.11135253 eV

  energy without entropy =      -41.11135253  energy(sigma->0) =      -41.11135253


--------------------------------------------------------------------------------------------------------




--------------------------------------- Iteration      1(   9)  ---------------------------------------


    POTLOK:  cpu time   50.6920: real time   51.0781
    SETDIJ:  cpu time    0.0520: real time    0.0521
     EDDAV:  cpu time   28.3880: real time   28.4983
 BZINTS: Fermi energy: -2.037578; 57.000000 electrons
         Band energy:-396.866750;  BLOECHL correction: -0.027934
       DOS:  cpu time    0.0040: real time    0.0068
    CHARGE:  cpu time    1.9560: real time    1.9636
    MIXING:  cpu time    0.0800: real time    0.0819
    --------------------------------------------
      LOOP:  cpu time   81.1720: real time   81.6807

 eigenvalue-minimisations  :  1248
 total energy-change (2. order) :-0.3984212E+00  (-0.1550375E+00)
 number of electron      56.9999999 magnetization       9.9957225
 augmentation part       -2.9518318 magnetization       8.1648922

 Broyden mixing:
  rms(total) = 0.32979E+00    rms(broyden)= 0.32979E+00
  rms(prec ) = 0.33297E+00
  weight for this iteration     100.00

 eigenvalues of (default mixing * dielectric matrix)
  average eigenvalue GAMMA=   1.0633
  1.8031  1.5133  0.2588  0.6778

 Free energy of the ion-electron system (eV)
  ---------------------------------------------------
  alpha Z        PSCENC =        13.62040840
  Ewald energy   TEWEN  =      6221.61188061
  -Hartree energ DENC   =     -8153.57191400
  -exchange      EXHF   =         0.00000000
  -V(xc)+E(xc)   XCENC  =      -216.33357796
  PAW double counting   =      1236.74784643     -932.07930452
  entropy T*S    EENTRO =         0.00000000
  eigenvalues    EBANDS =      -396.86675049
  atomic energy  EATOM  =      2185.36163785
  Solvation  Ediel_sol  =         0.00000000
  ---------------------------------------------------
  free energy    TOTEN  =       -41.50977368 eV

  energy without entropy =      -41.50977368  energy(sigma->0) =      -41.50977368


--------------------------------------------------------------------------------------------------------




--------------------------------------- Iteration      1(  10)  ---------------------------------------


    POTLOK:  cpu time   51.0440: real time   51.1057
    SETDIJ:  cpu time    0.0560: real time    0.0530
     EDDAV:  cpu time   28.0400: real time   28.1291
 BZINTS: Fermi energy: -1.983875; 57.000000 electrons
         Band energy:-394.260186;  BLOECHL correction: -0.036126
       DOS:  cpu time    0.0080: real time    0.0070
    CHARGE:  cpu time    1.9920: real time    1.9939
    MIXING:  cpu time    0.0440: real time    0.0433
    --------------------------------------------
      LOOP:  cpu time   81.1840: real time   81.3321

 eigenvalue-minimisations  :  1216
 total energy-change (2. order) :-0.4939131E+00  (-0.6147770E-01)
 number of electron      56.9999999 magnetization       9.1716813
 augmentation part       -2.7891709 magnetization       7.6366033

 Broyden mixing:
  rms(total) = 0.30892E+00    rms(broyden)= 0.30892E+00
  rms(prec ) = 0.31957E+00
  weight for this iteration     100.00

 eigenvalues of (default mixing * dielectric matrix)
  average eigenvalue GAMMA=   1.1555
  2.7794  1.0581  1.0581  0.2587  0.6232

 Free energy of the ion-electron system (eV)
  ---------------------------------------------------
  alpha Z        PSCENC =        13.62040840
  Ewald energy   TEWEN  =      6221.61188061
  -Hartree energ DENC   =     -8156.88843484
  -exchange      EXHF   =         0.00000000
  -V(xc)+E(xc)   XCENC  =      -215.32100973
  PAW double counting   =      1243.24492627     -939.37290943
  entropy T*S    EENTRO =         0.00000000
  eigenvalues    EBANDS =      -394.26018591
  atomic energy  EATOM  =      2185.36163785
  Solvation  Ediel_sol  =         0.00000000
  ---------------------------------------------------
  free energy    TOTEN  =       -42.00368677 eV

  energy without entropy =      -42.00368677  energy(sigma->0) =      -42.00368677


--------------------------------------------------------------------------------------------------------




--------------------------------------- Iteration      1(  11)  ---------------------------------------


    POTLOK:  cpu time   51.0480: real time   51.1417
    SETDIJ:  cpu time    0.0520: real time    0.0524
     EDDAV:  cpu time   28.2600: real time   28.3011
 BZINTS: Fermi energy: -1.943051; 57.000000 electrons
         Band energy:-393.086806;  BLOECHL correction: -0.034670
       DOS:  cpu time    0.0080: real time    0.0068
    CHARGE:  cpu time    2.0120: real time    2.0123
    MIXING:  cpu time    0.0400: real time    0.0434
    --------------------------------------------
      LOOP:  cpu time   81.4200: real time   81.5578

 eigenvalue-minimisations  :  1232
 total energy-change (2. order) :-0.1171788E+00  (-0.1013072E-01)
 number of electron      56.9999999 magnetization       8.1016079
 augmentation part       -2.8989350 magnetization       6.5772333

 Broyden mixing:
  rms(total) = 0.22403E+00    rms(broyden)= 0.22403E+00
  rms(prec ) = 0.23131E+00
  weight for this iteration     100.00

 eigenvalues of (default mixing * dielectric matrix)
  average eigenvalue GAMMA=   1.2106
  3.2825  1.2184  1.2184  0.2588  0.6800  0.6058

 Free energy of the ion-electron system (eV)
  ---------------------------------------------------
  alpha Z        PSCENC =        13.62040840
  Ewald energy   TEWEN  =      6221.61188061
  -Hartree energ DENC   =     -8157.84023184
  -exchange      EXHF   =         0.00000000
  -V(xc)+E(xc)   XCENC  =      -215.62238939
  PAW double counting   =      1245.56391090     -941.72927653
  entropy T*S    EENTRO =         0.00000000
  eigenvalues    EBANDS =      -393.08680559
  atomic energy  EATOM  =      2185.36163785
  Solvation  Ediel_sol  =         0.00000000
  ---------------------------------------------------
  free energy    TOTEN  =       -42.12086558 eV

  energy without entropy =      -42.12086558  energy(sigma->0) =      -42.12086558


--------------------------------------------------------------------------------------------------------




--------------------------------------- Iteration      1(  12)  ---------------------------------------


    POTLOK:  cpu time   50.9600: real time   51.0458
    SETDIJ:  cpu time    0.0520: real time    0.0536
     EDDAV:  cpu time   31.8640: real time   31.9688
 BZINTS: Fermi energy: -1.896774; 57.000000 electrons
         Band energy:-392.043964;  BLOECHL correction: -0.032530
       DOS:  cpu time    0.0080: real time    0.0072
    CHARGE:  cpu time    1.9520: real time    1.9548
    MIXING:  cpu time    0.0440: real time    0.0438
    --------------------------------------------
      LOOP:  cpu time   84.8800: real time   85.0740

 eigenvalue-minimisations  :  1408
 total energy-change (2. order) :-0.1839103E+00  (-0.1989508E-01)
 number of electron      56.9999999 magnetization       6.5776783
 augmentation part       -2.9930876 magnetization       5.0578741

 Broyden mixing:
  rms(total) = 0.21589E+00    rms(broyden)= 0.21589E+00
  rms(prec ) = 0.23162E+00
  weight for this iteration     100.00

 eigenvalues of (default mixing * dielectric matrix)
  average eigenvalue GAMMA=   1.4691
  5.1496  1.5524  1.5524  0.8440  0.6276  0.2588  0.2991

 Free energy of the ion-electron system (eV)
  ---------------------------------------------------
  alpha Z        PSCENC =        13.62040840
  Ewald energy   TEWEN  =      6221.61188061
  -Hartree energ DENC   =     -8158.61155965
  -exchange      EXHF   =         0.00000000
  -V(xc)+E(xc)   XCENC  =      -215.98037778
  PAW double counting   =      1244.06115597     -940.32395681
  entropy T*S    EENTRO =         0.00000000
  eigenvalues    EBANDS =      -392.04396447
  atomic energy  EATOM  =      2185.36163785
  Solvation  Ediel_sol  =         0.00000000
  ---------------------------------------------------
  free energy    TOTEN  =       -42.30477587 eV

  energy without entropy =      -42.30477587  energy(sigma->0) =      -42.30477587


--------------------------------------------------------------------------------------------------------




--------------------------------------- Iteration      1(  13)  ---------------------------------------


    POTLOK:  cpu time   51.0000: real time   51.1611
    SETDIJ:  cpu time    0.0520: real time    0.0515
     EDDAV:  cpu time   28.7440: real time   28.8375
 BZINTS: Fermi energy: -1.825611; 57.000000 electrons
         Band energy:-390.650144;  BLOECHL correction: -0.029557
       DOS:  cpu time    0.0040: real time    0.0064
    CHARGE:  cpu time    1.9720: real time    1.9710
    MIXING:  cpu time    0.0440: real time    0.0447
    --------------------------------------------
      LOOP:  cpu time   81.8160: real time   82.0721

 eigenvalue-minimisations  :  1264
 total energy-change (2. order) :-0.1580819E+00  (-0.1772144E-01)
 number of electron      56.9999999 magnetization       5.8608459
 augmentation part       -3.0966643 magnetization       4.3627505

 Broyden mixing:
  rms(total) = 0.71130E-01    rms(broyden)= 0.71128E-01
  rms(prec ) = 0.72990E-01
  weight for this iteration     100.00

 eigenvalues of (default mixing * dielectric matrix)
  average eigenvalue GAMMA=   1.7312
  7.5382  1.7447  1.3193  1.3193  0.7592  0.6197  0.2588  0.2901

 Free energy of the ion-electron system (eV)
  ---------------------------------------------------
  alpha Z        PSCENC =        13.62040840
  Ewald energy   TEWEN  =      6221.61188061
  -Hartree energ DENC   =     -8159.63658270
  -exchange      EXHF   =         0.00000000
  -V(xc)+E(xc)   XCENC  =      -216.44346070
  PAW double counting   =      1240.37648677     -936.70308417
  entropy T*S    EENTRO =         0.00000000
  eigenvalues    EBANDS =      -390.65014381
  atomic energy  EATOM  =      2185.36163785
  Solvation  Ediel_sol  =         0.00000000
  ---------------------------------------------------
  free energy    TOTEN  =       -42.46285774 eV

  energy without entropy =      -42.46285774  energy(sigma->0) =      -42.46285774


--------------------------------------------------------------------------------------------------------




--------------------------------------- Iteration      1(  14)  ---------------------------------------


    POTLOK:  cpu time   50.8000: real time   51.0666
    SETDIJ:  cpu time    0.0480: real time    0.0503
     EDDAV:  cpu time   24.5160: real time   24.6113
 BZINTS: Fermi energy: -1.799802; 57.034340 electrons
         Band energy:-390.192321;  BLOECHL correction: -0.030215
       DOS:  cpu time    0.0080: real time    0.0095
    CHARGE:  cpu time    1.9560: real time    1.9549
    MIXING:  cpu time    0.0440: real time    0.0456
    --------------------------------------------
      LOOP:  cpu time   77.3720: real time   77.7381

 eigenvalue-minimisations  :  1056
 total energy-change (2. order) :-0.1267922E+00  (-0.4135132E-02)
 number of electron      57.0343402 magnetization       5.7127238
 augmentation part       -3.0815896 magnetization       4.2329123

 Broyden mixing:
  rms(total) = 0.40957E-01    rms(broyden)= 0.40942E-01
  rms(prec ) = 0.42941E-01
  weight for this iteration     100.00

 eigenvalues of (default mixing * dielectric matrix)
  average eigenvalue GAMMA=   1.8714
  8.9702  2.3311  1.4056  1.4056  0.8120  0.7626  0.6075  0.2588  0.2891

 Free energy of the ion-electron system (eV)
  ---------------------------------------------------
  alpha Z        PSCENC =        13.62040840
  Ewald energy   TEWEN  =      6221.61188061
  -Hartree energ DENC   =     -8160.38795416
  -exchange      EXHF   =         0.00000000
  -V(xc)+E(xc)   XCENC  =      -216.57324089
  PAW double counting   =      1237.92391164     -933.95397230
  entropy T*S    EENTRO =         0.00000000
  eigenvalues    EBANDS =      -390.19232105
  atomic energy  EATOM  =      2185.36163785
  Solvation  Ediel_sol  =         0.00000000
  ---------------------------------------------------
  free energy    TOTEN  =       -42.58964989 eV

  energy without entropy =      -42.58964989  energy(sigma->0) =      -42.58964989


--------------------------------------------------------------------------------------------------------




--------------------------------------- Iteration      1(  15)  ---------------------------------------


    POTLOK:  cpu time   51.0800: real time   51.2035
    SETDIJ:  cpu time    0.0520: real time    0.0523
     EDDAV:  cpu time   23.8720: real time   24.0136
 BZINTS: Fermi energy: -1.782858; 57.000000 electrons
         Band energy:-389.373868;  BLOECHL correction: -0.031884
       DOS:  cpu time    0.0040: real time    0.0068
    CHARGE:  cpu time    2.0240: real time    2.0240
    MIXING:  cpu time    0.0440: real time    0.0467
    --------------------------------------------
      LOOP:  cpu time   77.0760: real time   77.3469

 eigenvalue-minimisations  :  1024
 total energy-change (2. order) : 0.6792621E-01  (-0.7111496E-03)
 number of electron      56.9999999 magnetization       5.6189217
 augmentation part       -3.0705993 magnetization       4.1919874

 Broyden mixing:
  rms(total) = 0.15264E-01    rms(broyden)= 0.15224E-01
  rms(prec ) = 0.16719E-01
  weight for this iteration     100.00

 eigenvalues of (default mixing * dielectric matrix)
  average eigenvalue GAMMA=   1.8787
  9.7567  2.5567  1.4530  1.4530  0.9769  0.7194  0.7194  0.6048  0.2588  0.2886

 Free energy of the ion-electron system (eV)
  ---------------------------------------------------
  alpha Z        PSCENC =        13.62040840
  Ewald energy   TEWEN  =      6221.61188061
  -Hartree energ DENC   =     -8161.26283731
  -exchange      EXHF   =         0.00000000
  -V(xc)+E(xc)   XCENC  =      -216.47965025
  PAW double counting   =      1236.70463707     -932.70393228
  entropy T*S    EENTRO =         0.00000000
  eigenvalues    EBANDS =      -389.37386778
  atomic energy  EATOM  =      2185.36163785
  Solvation  Ediel_sol  =         0.00000000
  ---------------------------------------------------
  free energy    TOTEN  =       -42.52172368 eV

  energy without entropy =      -42.52172368  energy(sigma->0) =      -42.52172368


--------------------------------------------------------------------------------------------------------




--------------------------------------- Iteration      1(  16)  ---------------------------------------


    POTLOK:  cpu time   50.8800: real time   51.1207
    SETDIJ:  cpu time    0.0560: real time    0.0530
     EDDAV:  cpu time   22.3320: real time   22.6024
 BZINTS: Fermi energy: -1.777760; 57.000000 electrons
         Band energy:-389.155792;  BLOECHL correction: -0.031686
       DOS:  cpu time    0.0040: real time    0.0071
    CHARGE:  cpu time    1.9560: real time    1.9560
    MIXING:  cpu time    0.0440: real time    0.0478
    --------------------------------------------
      LOOP:  cpu time   75.2720: real time   75.7870

 eigenvalue-minimisations  :   960
 total energy-change (2. order) :-0.9233475E-02  (-0.2711556E-03)
 number of electron      56.9999999 magnetization       5.5842455
 augmentation part       -3.0692032 magnetization       4.1747980

 Broyden mixing:
  rms(total) = 0.70062E-02    rms(broyden)= 0.70061E-02
  rms(prec ) = 0.83688E-02
  weight for this iteration     100.00

 eigenvalues of (default mixing * dielectric matrix)
  average eigenvalue GAMMA=   1.8463
  9.9781  2.6177  1.4471  1.4471  1.3509  0.2588  0.8107  0.8107  0.6089  0.6910
  0.2886

 Free energy of the ion-electron system (eV)
  ---------------------------------------------------
  alpha Z        PSCENC =        13.62040840
  Ewald energy   TEWEN  =      6221.61188061
  -Hartree energ DENC   =     -8161.47113039
  -exchange      EXHF   =         0.00000000
  -V(xc)+E(xc)   XCENC  =      -216.53092400
  PAW double counting   =      1236.89114530     -932.85818246
  entropy T*S    EENTRO =         0.00000000
  eigenvalues    EBANDS =      -389.15579247
  atomic energy  EATOM  =      2185.36163785
  Solvation  Ediel_sol  =         0.00000000
  ---------------------------------------------------
  free energy    TOTEN  =       -42.53095716 eV

  energy without entropy =      -42.53095716  energy(sigma->0) =      -42.53095716


--------------------------------------------------------------------------------------------------------




--------------------------------------- Iteration      1(  17)  ---------------------------------------


    POTLOK:  cpu time   50.8120: real time   51.0726
    SETDIJ:  cpu time    0.0520: real time    0.0519
     EDDAV:  cpu time   23.5000: real time   23.6430
 BZINTS: Fermi energy: -1.775974; 57.000000 electrons
         Band energy:-389.053357;  BLOECHL correction: -0.031570
       DOS:  cpu time    0.0080: real time    0.0070
    CHARGE:  cpu time    1.9480: real time    1.9681
    MIXING:  cpu time    0.0480: real time    0.0536
    --------------------------------------------
      LOOP:  cpu time   76.3680: real time   76.7963

 eigenvalue-minimisations  :  1008
 total energy-change (2. order) : 0.3391463E-03  (-0.8116794E-04)
 number of electron      56.9999999 magnetization       5.5807163
 augmentation part       -3.0646162 magnetization       4.1778739

 Broyden mixing:
  rms(total) = 0.36578E-02    rms(broyden)= 0.36578E-02
  rms(prec ) = 0.52260E-02
  weight for this iteration     100.00

 eigenvalues of (default mixing * dielectric matrix)
  average eigenvalue GAMMA=   1.7931
 10.0095  2.6642  1.6777  1.4165  1.4165  0.2588  0.8792  0.8792  0.7710  0.6030
  0.6531  0.2886

 Free energy of the ion-electron system (eV)
  ---------------------------------------------------
  alpha Z        PSCENC =        13.62040840
  Ewald energy   TEWEN  =      6221.61188061
  -Hartree energ DENC   =     -8161.56816291
  -exchange      EXHF   =         0.00000000
  -V(xc)+E(xc)   XCENC  =      -216.53594311
  PAW double counting   =      1237.12392984     -933.09101134
  entropy T*S    EENTRO =         0.00000000
  eigenvalues    EBANDS =      -389.05335736
  atomic energy  EATOM  =      2185.36163785
  Solvation  Ediel_sol  =         0.00000000
  ---------------------------------------------------
  free energy    TOTEN  =       -42.53061801 eV

  energy without entropy =      -42.53061801  energy(sigma->0) =      -42.53061801


--------------------------------------------------------------------------------------------------------




--------------------------------------- Iteration      1(  18)  ---------------------------------------


    POTLOK:  cpu time   50.8080: real time   51.1073
    SETDIJ:  cpu time    0.0520: real time    0.0502
     EDDAV:  cpu time   22.7960: real time   23.0761
 BZINTS: Fermi energy: -1.775200; 57.000000 electrons
         Band energy:-389.012357;  BLOECHL correction: -0.031595
       DOS:  cpu time    0.0080: real time    0.0049
    --------------------------------------------
      LOOP:  cpu time   73.6640: real time   74.2385

 eigenvalue-minimisations  :   960
 total energy-change (2. order) : 0.7812609E-04  (-0.1749658E-04)
 number of electron      56.9999999 magnetization       5.5807163
 augmentation part       -3.0646162 magnetization       4.1778739

 Free energy of the ion-electron system (eV)
  ---------------------------------------------------
  alpha Z        PSCENC =        13.62040840
  Ewald energy   TEWEN  =      6221.61188061
  -Hartree energ DENC   =     -8161.60624704
  -exchange      EXHF   =         0.00000000
  -V(xc)+E(xc)   XCENC  =      -216.54279554
  PAW double counting   =      1237.22917283     -933.19224030
  entropy T*S    EENTRO =         0.00000000
  eigenvalues    EBANDS =      -389.01235670
  atomic energy  EATOM  =      2185.36163785
  Solvation  Ediel_sol  =         0.00000000
  ---------------------------------------------------
  free energy    TOTEN  =       -42.53053989 eV

  energy without entropy =      -42.53053989  energy(sigma->0) =      -42.53053989


--------------------------------------------------------------------------------------------------------




 average (electrostatic) potential at core
  the test charge radii are     1.1394  0.9587  1.1631  1.1897
  (the norm of the test charge is              1.0000)
       1 -50.6312       2 -50.6321       3 -91.7009       4 -39.3091       5 -96.4914
       6 -96.4914       7 -96.4913       8 -96.6507       9 -96.6506      10 -96.6506



 E-fermi :  -1.7752     XC(G=0):  -3.5792     alpha+bet : -3.0529


 spin component 1

 k-point     1 :       0.0000    0.0000    0.0000
  band No.  band energies     occupation 
      1     -15.0635      1.00000
      2     -13.9561      1.00000
      3     -12.8252      1.00000
      4     -12.8252      1.00000
      5     -12.7183      1.00000
      6     -12.7183      1.00000
      7     -11.9384      1.00000
      8      -9.6017      1.00000
      9      -6.9037      1.00000
     10      -6.9037      1.00000
     11      -6.6804      1.00000
     12      -6.6571      1.00000
     13      -6.2958      1.00000
     14      -6.2958      1.00000
     15      -5.4312      1.00000
     16      -4.5504      1.00000
     17      -4.5317      1.00000
     18      -4.5316      1.00000
     19      -4.2461      1.00000
     20      -4.2461      1.00000
     21      -3.7298      1.00000
     22      -3.7298      1.00000
     23      -3.6250      1.00000
     24      -3.2298      1.00000
     25      -3.2298      1.00000
     26      -3.2025      1.00000
     27      -3.1696      1.00000
     28      -3.1696      1.00000
     29      -3.1190      1.00000
     30      -2.3846      1.00000
     31      -2.3846      1.00000
     32      -1.3253      0.00000
     33      -1.2223      0.00000
     34      -1.2223      0.00000
     35      -0.6766      0.00000
     36      -0.5205      0.00000
     37      -0.5205      0.00000
     38       0.0955      0.00000
     39       0.0956      0.00000
     40       1.3885      0.00000
     41       1.6636      0.00000
     42       1.7070      0.00000
     43       1.7600      0.00000
     44       1.7600      0.00000
     45       2.1591      0.00000
     46       2.4585      0.00000
     47       3.0334      0.00000
     48       3.0334      0.00000

 k-point     2 :       0.2000    0.0000    0.0000
  band No.  band energies     occupation 
      1     -14.9626      1.00000
      2     -13.8648      1.00000
      3     -13.1293      1.00000
      4     -12.9300      1.00000
      5     -12.8336      1.00000
      6     -12.7832      1.00000
      7     -11.6500      1.00000
      8      -9.5972      1.00000
      9      -6.9904      1.00000
     10      -6.8017      1.00000
     11      -6.5942      1.00000
     12      -6.4649      1.00000
     13      -5.9217      1.00000
     14      -5.7475      1.00000
     15      -5.2093      1.00000
     16      -4.9245      1.00000
     17      -4.6846      1.00000
     18      -4.5617      1.00000
     19      -4.1865      1.00000
     20      -4.0961      1.00000
     21      -4.0180      1.00000
     22      -4.0011      1.00000
     23      -3.6771      1.00000
     24      -3.4773      1.00000
     25      -3.4104      1.00000
     26      -3.2533      1.00000
     27      -3.2321      1.00000
     28      -3.1125      1.00000
     29      -3.0465      1.00000
     30      -2.7394      1.00000
     31      -2.5848      1.00000
     32      -1.6568     -0.02507
     33      -1.1301      0.00000
     34      -1.0783      0.00000
     35      -0.8569      0.00000
     36      -0.5917      0.00000
     37      -0.1688      0.00000
     38       0.0986      0.00000
     39       0.3795      0.00000
     40       1.2941      0.00000
     41       1.6072      0.00000
     42       1.7267      0.00000
     43       1.9021      0.00000
     44       1.9536      0.00000
     45       2.3049      0.00000
     46       2.6226      0.00000
     47       2.9038      0.00000
     48       3.0671      0.00000

 k-point     3 :       0.4000    0.0000    0.0000
  band No.  band energies     occupation 
      1     -14.7362      1.00000
      2     -13.6768      1.00000
      3     -13.5678      1.00000
      4     -13.0802      1.00000
      5     -13.0049      1.00000
      6     -12.9243      1.00000
      7     -11.3355      1.00000
      8      -9.5578      1.00000
      9      -6.8770      1.00000
     10      -6.6389      1.00000
     11      -6.1787      1.00000
     12      -5.9863      1.00000
     13      -5.3553      1.00000
     14      -5.2913      1.00000
     15      -5.2295      1.00000
     16      -5.0546      1.00000
     17      -4.9135      1.00000
     18      -4.8133      1.00000
     19      -4.5205      1.00000
     20      -4.4368      1.00000
     21      -4.3463      1.00000
     22      -3.8214      1.00000
     23      -3.7939      1.00000
     24      -3.7405      1.00000
     25      -3.4468      1.00000
     26      -3.3475      1.00000
     27      -3.2740      1.00000
     28      -3.0367      1.00000
     29      -2.9621      1.00000
     30      -2.9024      1.00000
     31      -2.8643      1.00000
     32      -1.6656     -0.06016
     33      -1.4096      0.00000
     34      -1.1393      0.00000
     35      -0.9739      0.00000
     36      -0.7549      0.00000
     37      -0.4749      0.00000
     38      -0.0144      0.00000
     39       0.8306      0.00000
     40       1.1250      0.00000
     41       1.4284      0.00000
     42       1.7507      0.00000
     43       1.9151      0.00000
     44       2.3835      0.00000
     45       2.6563      0.00000
     46       2.8693      0.00000
     47       3.0636      0.00000
     48       3.1543      0.00000

 k-point     4 :       0.4000    0.2000    0.0000
  band No.  band energies     occupation 
      1     -14.7928      1.00000
      2     -13.7098      1.00000
      3     -13.4094      1.00000
      4     -13.1810      1.00000
      5     -12.9707      1.00000
      6     -12.8563      1.00000
      7     -11.3699      1.00000
      8      -9.5505      1.00000
      9      -7.0208      1.00000
     10      -6.4908      1.00000
     11      -6.4064      1.00000
     12      -6.1937      1.00000
     13      -5.3540      1.00000
     14      -5.2111      1.00000
     15      -5.2002      1.00000
     16      -5.0123      1.00000
     17      -4.9410      1.00000
     18      -4.7347      1.00000
     19      -4.7226      1.00000
     20      -4.3473      1.00000
     21      -4.3154      1.00000
     22      -3.7781      1.00000
     23      -3.7234      1.00000
     24      -3.4913      1.00000
     25      -3.4419      1.00000
     26      -3.3495      1.00000
     27      -3.2903      1.00000
     28      -3.1108      1.00000
     29      -2.9725      1.00000
     30      -2.8662      1.00000
     31      -2.7686      1.00000
     32      -1.8651      0.90434
     33      -1.2205      0.00000
     34      -1.0323      0.00000
     35      -0.8970      0.00000
     36      -0.8315      0.00000
     37      -0.4301      0.00000
     38       0.2546      0.00000
     39       0.3291      0.00000
     40       1.1457      0.00000
     41       1.4396      0.00000
     42       1.4784      0.00000
     43       2.2372      0.00000
     44       2.2410      0.00000
     45       2.5799      0.00000
     46       2.9009      0.00000
     47       2.9391      0.00000
     48       3.0697      0.00000

 k-point     5 :      -0.4000    0.2000    0.0000
  band No.  band energies     occupation 
      1     -14.6459      1.00000
      2     -13.6445      1.00000
      3     -13.5200      1.00000
      4     -13.3143      1.00000
      5     -13.0924      1.00000
      6     -12.9414      1.00000
      7     -11.2102      1.00000
      8      -9.4976      1.00000
      9      -6.8306      1.00000
     10      -6.3862      1.00000
     11      -6.3250      1.00000
     12      -5.7996      1.00000
     13      -5.7924      1.00000
     14      -5.3526      1.00000
     15      -5.0774      1.00000
     16      -4.9287      1.00000
     17      -4.8749      1.00000
     18      -4.7017      1.00000
     19      -4.5994      1.00000
     20      -4.5034      1.00000
     21      -4.2991      1.00000
     22      -3.9953      1.00000
     23      -3.5870      1.00000
     24      -3.5240      1.00000
     25      -3.4158      1.00000
     26      -3.3988      1.00000
     27      -3.2273      1.00000
[...]
     34       0.1551      0.00000
     35       0.1845      0.00000
     36       0.4173      0.00000
     37       0.4999      0.00000
     38       0.7749      0.00000
     39       0.8582      0.00000
     40       1.4494      0.00000
     41       1.7815      0.00000
     42       1.8203      0.00000
     43       2.2568      0.00000
     44       2.4630      0.00000
     45       2.7775      0.00000
     46       3.2449      0.00000
     47       3.2711      0.00000
     48       3.4645      0.00000

 k-point     5 :      -0.4000    0.2000    0.0000
  band No.  band energies     occupation 
      1     -14.7092      1.00000
      2     -13.6816      1.00000
      3     -13.5347      1.00000
      4     -13.3515      1.00000
      5     -13.1061      1.00000
      6     -12.9545      1.00000
      7     -11.1761      1.00000
      8      -9.4276      1.00000
      9      -6.7446      1.00000
     10      -6.3072      1.00000
     11      -6.2217      1.00000
     12      -5.7273      1.00000
     13      -5.6113      1.00000
     14      -5.1514      1.00000
     15      -4.7933      1.00000
     16      -4.7081      1.00000
     17      -4.5422      1.00000
     18      -4.3357      1.00000
     19      -4.1390      1.00000
     20      -4.0284      1.00000
     21      -3.7211      1.00000
     22      -3.4821      1.00000
     23      -3.2880      1.00000
     24      -3.1531      1.00000
     25      -3.1292      1.00000
     26      -2.2929      1.00000
     27      -1.4834      0.00000
     28      -1.0999      0.00000
     29      -1.0002      0.00000
     30      -0.4153      0.00000
     31      -0.3775      0.00000
     32      -0.3763      0.00000
     33      -0.0561      0.00000
     34      -0.0023      0.00000
     35       0.2874      0.00000
     36       0.4452      0.00000
     37       0.4940      0.00000
     38       0.6064      0.00000
     39       0.9620      0.00000
     40       1.4152      0.00000
     41       1.6059      0.00000
     42       1.6805      0.00000
     43       2.7420      0.00000
     44       2.8422      0.00000
     45       2.8521      0.00000
     46       2.9370      0.00000
     47       3.0207      0.00000
     48       3.4331      0.00000


--------------------------------------------------------------------------------------------------------


 soft charge-density along one line, spin component           1
         0         1         2         3         4         5         6         7         8         9
 total charge-density along one line

 soft charge-density along one line, spin component           2
         0         1         2         3         4         5         6         7         8         9
 total charge-density along one line

 pseudopotential strength for first ion, spin component:           1
 -8.418   0.078  -0.000  -0.003  -0.000   0.581  -0.021   0.000
  0.078  -8.329   0.000  -0.000  -0.003  -0.021   0.557  -0.000
 -0.000   0.000  -8.491   0.000   0.000   0.000  -0.000   0.601
 -0.003  -0.000   0.000  -8.329  -0.078   0.001   0.000  -0.000
 -0.000  -0.003   0.000  -0.078  -8.418   0.000   0.001  -0.000
  0.581  -0.021   0.000   0.001   0.000   0.391   0.005  -0.000
 -0.021   0.557  -0.000   0.000   0.001   0.005   0.397   0.000
  0.000  -0.000   0.601  -0.000  -0.000  -0.000   0.000   0.386
  0.001   0.000  -0.000   0.557   0.021  -0.000  -0.000   0.000
  0.000   0.001  -0.000   0.021   0.581  -0.000  -0.000   0.000
  0.000  -0.000  -0.002  -0.000   0.000  -0.000   0.000   0.000
 -0.000   0.000   0.000   0.000  -0.000   0.000  -0.000  -0.000
 -0.000   0.000   0.000  -0.000   0.001  -0.000  -0.000  -0.000
 -0.000  -0.000   0.000  -0.000  -0.000   0.000   0.000  -0.000
  0.001  -0.000   0.000   0.000   0.000  -0.000   0.000  -0.000
  0.000  -0.000  -0.000   0.000  -0.001   0.000   0.000   0.000
  0.000   0.000   0.000   0.000   0.000  -0.000  -0.000  -0.000
 -0.001   0.000  -0.000  -0.000  -0.000   0.000  -0.000   0.000
 pseudopotential strength for first ion, spin component:           2
 -6.821  -0.148  -0.000   0.003   0.000   0.130   0.039   0.000
 -0.148  -6.992   0.000   0.000   0.003   0.039   0.174  -0.000
 -0.000   0.000  -6.694   0.000   0.000   0.000  -0.000   0.097
  0.003   0.000   0.000  -6.992   0.148  -0.001  -0.000  -0.000
  0.000   0.003   0.000   0.148  -6.821  -0.000  -0.001  -0.000
  0.130   0.039   0.000  -0.001  -0.000   0.514  -0.010  -0.000
  0.039   0.174  -0.000  -0.000  -0.001  -0.010   0.503   0.000
  0.000  -0.000   0.097  -0.000  -0.000  -0.000   0.000   0.523
 -0.001  -0.000  -0.000   0.174  -0.039   0.000   0.000   0.000
 -0.000  -0.001  -0.000  -0.039   0.130   0.000   0.000   0.000
 -0.000  -0.000   0.005  -0.000   0.000  -0.000   0.000  -0.000
  0.000   0.000  -0.001   0.000  -0.000  -0.000  -0.000   0.000
  0.000   0.000   0.000  -0.000   0.001  -0.000  -0.000  -0.000
 -0.000  -0.000  -0.001  -0.000   0.000   0.000   0.000   0.000
  0.001  -0.000   0.000   0.000  -0.000  -0.000   0.000  -0.000
 -0.000   0.000  -0.000   0.000  -0.001   0.000   0.000   0.000
  0.000   0.000   0.000   0.000  -0.000  -0.000  -0.000  -0.000
 -0.001   0.000  -0.000   0.000   0.000   0.000  -0.000   0.000
 total augmentation occupancy for first ion, spin component:           1
  0.984  -0.050   0.000  -0.006  -0.000   0.052   0.182  -0.000  -0.002  -0.000  -0.000  -0.000   0.003  -0.000   0.011  -0.000
 -0.050   0.965  -0.000  -0.000  -0.006   0.181   0.251   0.000   0.000  -0.002   0.000   0.000   0.002   0.000  -0.003  -0.000
  0.000  -0.000   1.025  -0.000  -0.000  -0.000   0.000  -0.087   0.000   0.000  -0.002  -0.012  -0.000  -0.002   0.000  -0.000
 -0.006  -0.000  -0.000   0.965   0.050  -0.002  -0.000   0.000   0.251  -0.181   0.000   0.000   0.003   0.000   0.002   0.000
 -0.000  -0.006  -0.000   0.050   0.984   0.000  -0.002   0.000  -0.182   0.052   0.000   0.000   0.011   0.000  -0.003   0.000
  0.052   0.181  -0.000  -0.002   0.000   0.132   0.068   0.000   0.001  -0.000   0.000  -0.000   0.000   0.000   0.018   0.000
  0.182   0.251   0.000  -0.000  -0.002   0.068   0.206   0.000  -0.000   0.001   0.000   0.000  -0.000   0.000  -0.003  -0.000
 -0.000   0.000  -0.087   0.000   0.000   0.000   0.000   0.119   0.000  -0.000   0.040  -0.008  -0.000   0.001   0.000   0.000
 -0.002   0.000   0.000   0.251  -0.182   0.001  -0.000   0.000   0.206  -0.068   0.000   0.000   0.003   0.000  -0.000  -0.000
 -0.000  -0.002   0.000  -0.181   0.052  -0.000   0.001  -0.000  -0.068   0.132  -0.000   0.000   0.018  -0.000  -0.000  -0.001
 -0.000   0.000  -0.002   0.000   0.000   0.000   0.000   0.040   0.000  -0.000   1.052  -0.150  -0.000   0.002   0.000   0.000
 -0.000   0.000  -0.012   0.000   0.000  -0.000   0.000  -0.008   0.000   0.000  -0.150   0.053   0.000   0.000  -0.000  -0.000
  0.003   0.002  -0.000   0.003   0.011   0.000  -0.000  -0.000   0.003   0.018  -0.000   0.000   0.206  -0.000  -0.000  -0.001
 -0.000  -0.000  -0.002   0.000   0.000   0.000   0.000   0.001   0.000  -0.000   0.002   0.000  -0.000   0.218   0.000   0.000
  0.011  -0.003   0.000   0.002  -0.003   0.018  -0.003   0.000  -0.000  -0.000  -0.000   0.000  -0.000   0.000   0.206  -0.000
 -0.000  -0.000  -0.000   0.000   0.000   0.000  -0.000   0.000  -0.000  -0.001   0.000   0.000  -0.001   0.000  -0.000   0.000
 -0.000   0.000  -0.000  -0.000   0.000   0.000   0.000   0.000   0.000  -0.000  -0.000   0.000   0.000  -0.002   0.000  -0.000
  0.000  -0.000   0.000  -0.000   0.000  -0.001   0.000  -0.000  -0.000  -0.000   0.000   0.000   0.000   0.000  -0.001  -0.000
 total augmentation occupancy for first ion, spin component:           2
  0.708  -0.254   0.000   0.006  -0.000  -0.133   0.040  -0.000  -0.000   0.000  -0.000  -0.000   0.000  -0.000  -0.001  -0.000
 -0.254   0.416  -0.000  -0.000   0.006   0.042  -0.092   0.000   0.000   0.000  -0.000  -0.000   0.001   0.000   0.008   0.000
  0.000  -0.000   0.913  -0.000  -0.000  -0.000   0.000  -0.183   0.000   0.000  -0.026  -0.005   0.000  -0.002  -0.000  -0.000
  0.006  -0.000  -0.000   0.416   0.254   0.000  -0.000   0.000  -0.092  -0.042   0.000   0.000  -0.008   0.000   0.001   0.000
 -0.000   0.006  -0.000   0.254   0.708  -0.000  -0.000   0.000  -0.040  -0.133   0.000   0.000  -0.001   0.000  -0.000   0.001
 -0.133   0.042  -0.000   0.000  -0.000  -0.009  -0.038   0.000   0.001  -0.000   0.000   0.000  -0.001   0.000  -0.003   0.000
  0.040  -0.092   0.000  -0.000  -0.000  -0.038  -0.049  -0.000   0.000   0.001   0.000   0.000  -0.001   0.000   0.001  -0.000
 -0.000   0.000  -0.183   0.000   0.000   0.000  -0.000   0.033  -0.000  -0.000   0.007   0.003   0.000   0.001  -0.000   0.000
 -0.000   0.000   0.000  -0.092  -0.040   0.001   0.000  -0.000  -0.049   0.038   0.000  -0.000  -0.001  -0.000  -0.001  -0.000
  0.000   0.000   0.000  -0.042  -0.133  -0.000   0.001  -0.000   0.038  -0.009  -0.000  -0.000  -0.003  -0.000   0.001  -0.000
 -0.000  -0.000  -0.026   0.000   0.000   0.000   0.000   0.007  -0.000  -0.000   0.172   0.061   0.000  -0.000   0.000   0.000
 -0.000  -0.000  -0.005   0.000   0.000   0.000   0.000   0.003  -0.000  -0.000   0.061  -0.017  -0.000   0.000   0.000   0.000
  0.000   0.001   0.000  -0.008  -0.001  -0.001  -0.001   0.000  -0.001  -0.003   0.000  -0.000   0.028   0.000  -0.000   0.003
 -0.000   0.000  -0.002   0.000   0.000   0.000   0.000   0.001  -0.000  -0.000  -0.000   0.000   0.000   0.022   0.000  -0.000
 -0.001   0.008  -0.000   0.001  -0.000  -0.003   0.001  -0.000  -0.001   0.001  -0.000   0.000  -0.000   0.000   0.028  -0.000
 -0.000   0.000  -0.000   0.000   0.001   0.000  -0.000   0.000  -0.000  -0.000   0.000   0.000   0.003   0.000  -0.000   0.000
 -0.000   0.000  -0.000   0.000   0.000   0.000   0.000   0.000   0.000  -0.000   0.000   0.000  -0.000   0.002   0.000   0.000
  0.001  -0.000   0.000   0.000   0.000  -0.000   0.000   0.000  -0.000  -0.000   0.000   0.000   0.000   0.000   0.003  -0.000


------------------------ aborting loop because EDIFF is reached ----------------------------------------





 total charge     

# of ion       s       p       d       tot
------------------------------------------
    1        0.338   0.421   4.278   5.038
    2        0.338   0.421   4.277   5.037
    3        1.097   1.329   0.000   2.426
    4        1.174   1.113   0.081   2.367
    5        1.394   1.986   0.035   3.415
    6        1.386   1.968   0.035   3.389
    7        1.391   1.976   0.036   3.403
    8        1.403   1.942   0.038   3.383
    9        1.391   1.919   0.039   3.349
   10        1.400   1.933   0.039   3.372
--------------------------------------------------
tot         11.312  15.007   8.859  35.178



 magnetization (x)

# of ion       s       p       d       tot
------------------------------------------
    1        0.041   0.045   2.895   2.981
    2        0.041   0.045   2.895   2.981
    3       -0.016   0.002   0.000  -0.014
    4        0.005   0.022  -0.002   0.025
    5       -0.000  -0.093   0.005  -0.088
    6       -0.002  -0.075   0.005  -0.072
    7       -0.002  -0.090   0.005  -0.086
    8       -0.002  -0.103   0.004  -0.101
    9       -0.003  -0.099   0.004  -0.097
   10       -0.004  -0.109   0.004  -0.109
--------------------------------------------------
tot          0.058  -0.454   5.814   5.418

    CHARGE:  cpu time    2.0200: real time    2.0175
    FORLOC:  cpu time    0.0640: real time    0.0636
    FORNL :  cpu time    6.4760: real time    6.4838
    STRESS:  cpu time   19.3640: real time   19.5238
    FORCOR:  cpu time   50.9520: real time   51.1483
    FORHAR:  cpu time    0.3320: real time    0.3296
    MIXING:  cpu time    0.0400: real time    0.0400
    OFIELD:  cpu time    0.0000: real time    0.0000

  FORCE on cell =-STRESS in cart. coord.  units (eV):
  Direction    XX          YY          ZZ          XY          YZ          ZX
  --------------------------------------------------------------------------------------
  Alpha Z    14.00276    14.00276    14.00276
  Ewald    7601.93752  7601.93531 -9096.79891    -0.00109    -0.00040    -0.00073
  Hartree  7913.20667  7913.20707 -7772.55873    -0.00001     0.00005     0.00009
  E(xc)    -227.44349  -227.44346  -227.58936     0.00000     0.00002     0.00002
  Local  -16387.81771-16387.81678 15959.04520     0.00083     0.00025     0.00047
  n-local   716.96324   717.79735   734.05548     0.25670     0.49393     0.49472
  augment  -108.44641  -108.44637  -116.32566     0.00007    -0.00004     0.00005
  Kinetic   480.61793   473.53028   506.03421    -4.72146    -0.08806    -0.29871
  Fock        0.00000     0.00000     0.00000     0.00000     0.00000     0.00000
  -------------------------------------------------------------------------------------
  Total      -0.10667    -0.10667    -0.13502     0.00000    -0.00000     0.00000
  in kB      -0.18136    -0.18136    -0.22956     0.00000    -0.00000     0.00000
  external pressure =       -0.20 kB  Pullay stress =        0.00 kB


 VOLUME and BASIS-vectors are now :
 -----------------------------------------------------------------------------
  energy-cutoff  :      520.00
  volume of cell :      942.38
      direct lattice vectors                 reciprocal lattice vectors
     6.878197704 -0.000000065  0.000000000     0.145386922 -0.083939174  0.000000000
     3.439098415  5.956693550 -0.000000000     0.000000002  0.167878368  0.000000000
    -0.000000000 -0.000000000 23.000989970    -0.000000000  0.000000000  0.043476390

  length of vectors
     6.878197704  6.878197145 23.000989970     0.167878355  0.167878368  0.043476390


 FORCES acting on ions
    electron-ion (+dipol)            ewald-force                    non-local-force                 convergence-correction
 -----------------------------------------------------------------------------------------------
   -.214E-04 -.934E-05 -.509E+01   0.323E-03 0.192E-03 0.514E+01   0.117E-19 -.277E-16 -.160E+00   -.502E-07 -.331E-07 0.575E-02
   0.139E-04 0.228E-04 -.640E+01   -.323E-03 -.192E-03 0.646E+01   -.277E-16 0.139E-16 -.157E+00   -.460E-08 -.419E-08 0.582E-02
   -.363E-04 -.330E-04 0.201E+03   -.180E-03 -.997E-04 -.202E+03   0.207E-16 -.105E-16 0.915E+00   -.149E-07 -.731E-08 -.328E-01
   0.231E-04 0.276E-04 -.172E+03   0.142E-03 0.785E-04 0.171E+03   0.104E-16 -.497E-20 0.841E-01   -.107E-08 -.377E-09 0.334E-01
   -.739E+01 0.167E+00 -.349E+03   0.375E+01 -.153E+00 0.354E+03   0.346E+01 -.144E-01 -.444E+01   -.187E-02 -.779E-02 0.648E-01
   0.384E+01 0.631E+01 -.349E+03   -.201E+01 -.317E+01 0.354E+03   -.174E+01 -.299E+01 -.444E+01   -.581E-02 0.552E-02 0.648E-01
   0.355E+01 -.648E+01 -.349E+03   -.174E+01 0.332E+01 0.354E+03   -.172E+01 0.300E+01 -.444E+01   0.769E-02 0.228E-02 0.648E-01
   0.227E-01 -.143E+00 0.343E+03   0.339E+01 0.145E+00 -.347E+03   -.346E+01 0.132E-01 0.451E+01   0.291E-02 -.778E-02 -.562E-01
   -.134E+00 0.536E-01 0.343E+03   -.157E+01 -.301E+01 -.347E+03   0.174E+01 0.299E+01 0.451E+01   -.820E-02 0.137E-02 -.562E-01
   0.114E+00 0.908E-01 0.343E+03   -.182E+01 0.286E+01 -.347E+03   0.172E+01 -.300E+01 0.451E+01   0.528E-02 0.641E-02 -.562E-01
 -----------------------------------------------------------------------------------------------
   -.484E-04 0.292E-04 -.930E+00   -.129E-13 0.711E-14 0.568E-13   -.222E-15 -.444E-15 0.891E+00   -.954E-07 -.574E-07 0.379E-01


 POSITION                                       TOTAL-FORCE (eV/Angst)
 -----------------------------------------------------------------------------------
      3.43910      1.98556     11.49877         0.000000     -0.000000     -0.104972
      6.87820      3.97113     11.50222         0.000000     -0.000000     -0.095825
     -0.00000     -0.00000     10.28176         0.000000     -0.000000     -0.006550
     -0.00000     -0.00000     12.69158         0.000000     -0.000000     -0.516379
      4.30965      0.00250     13.19686        -0.184975     -0.007785      0.149028
      1.28644      2.22318     13.19686         0.085746      0.164085      0.149028
      4.72121      3.73102     13.19686         0.099229     -0.156301      0.149028
      6.00764      5.95419      9.80413        -0.047581      0.007696      0.092214
      9.03085      3.73351      9.80413         0.030456      0.037359      0.092214
      5.59608      2.22568      9.80413         0.017126     -0.045055      0.092214
 -----------------------------------------------------------------------------------
    total drift:                               -0.000049      0.000029     -0.000709


--------------------------------------------------------------------------------------------------------



  FREE ENERGIE OF THE ION-ELECTRON SYSTEM (eV)
  ---------------------------------------------------
  free  energy   TOTEN  =       -42.56874462 eV

  energy  without entropy=      -42.56874462  energy(sigma->0) =      -42.56874462

 d Force = 0.7342180E-06[ 0.582E-06, 0.887E-06]  d Energy =-0.7672859E-04 0.775E-04
 d Force = 0.1797213E-01[ 0.180E-01, 0.180E-01]  d Ewald  =-0.1994623E+00 0.217E+00


--------------------------------------------------------------------------------------------------------


    POTLOK:  cpu time   51.1320: real time   51.2568


--------------------------------------------------------------------------------------------------------




--------------------------------------------------------------------------------------------------------


  
 reached required accuracy - stopping structural energy minimisation
     LOOP+:  cpu time  270.5880: real time  271.4617
    4ORBIT:  cpu time    0.0000: real time    0.0000



 total charge     

# of ion       s       p       d       tot
------------------------------------------
    1        0.338   0.421   4.278   5.038
    2        0.338   0.421   4.277   5.037
    3        1.097   1.329   0.000   2.426
    4        1.174   1.113   0.081   2.367
    5        1.394   1.986   0.035   3.415
    6        1.386   1.968   0.035   3.389
    7        1.391   1.976   0.036   3.403
    8        1.403   1.942   0.038   3.383
    9        1.391   1.919   0.039   3.349
   10        1.400   1.933   0.039   3.372
--------------------------------------------------
tot         11.312  15.007   8.859  35.178



 magnetization (x)

# of ion       s       p       d       tot
------------------------------------------
    1        0.041   0.045   2.895   2.981
    2        0.041   0.045   2.895   2.981
    3       -0.016   0.002   0.000  -0.014
    4        0.005   0.022  -0.002   0.025
    5       -0.000  -0.093   0.005  -0.088
    6       -0.002  -0.075   0.005  -0.072
    7       -0.002  -0.090   0.005  -0.086
    8       -0.002  -0.103   0.004  -0.101
    9       -0.003  -0.099   0.004  -0.097
   10       -0.004  -0.109   0.004  -0.109
--------------------------------------------------
tot          0.058  -0.454   5.814   5.418

 BZINTS: Fermi energy: -1.648767; 57.000000 electrons
         Band energy:-386.154783;  BLOECHL correction: -0.030243

 total amount of memory used by VASP MPI-rank0   130713. kBytes
=======================================================================

   base      :      30000. kBytes
   nonlr-proj:       8213. kBytes
   fftplans  :      11247. kBytes
   grid      :      68332. kBytes
   one-center:        311. kBytes
   wavefun   :      12610. kBytes

  
  
 General timing and accounting informations for this job:
 ========================================================
  
                  Total CPU time used (sec):     6508.044
                            User time (sec):     6358.172
                          System time (sec):      149.872
                         Elapsed time (sec):     6540.409
  
                   Maximum memory used (kb):      380484.
                   Average memory used (kb):           0.
  
                          Minor page faults:      6917859
                          Major page faults:            8
                 Voluntary context switches:         1039
