PROCAR lm decomposed
# of k-points:    5         # of bands:   48         # of ions:   10

 k-point     1 :    0.00000000 0.00000000 0.00000000     weight = 0.04000000

band     1 # energy  -15.10092445 # occ.  1.00000000

ion      s     py     pz     px    dxy    dyz    dz2    dxz  x2-y2    tot
    1  0.011  0.000  0.000  0.000  0.000  0.000  0.000  0.000  0.000  0.011
    2  0.011  0.000  0.000  0.000  0.000  0.000  0.000  0.000  0.000  0.011
    3  0.149  0.000  0.001  0.000  0.000  0.000  0.000  0.000  0.000  0.150
    4  0.065  0.000  0.002  0.000  0.000  0.000  0.000  0.000  0.000  0.068
    5  0.038  0.000  0.001  0.000  0.000  0.000  0.000  0.000  0.000  0.039
    6  0.038  0.000  0.001  0.000  0.000  0.000  0.000  0.000  0.000  0.039
    7  0.038  0.000  0.001  0.000  0.000  0.000  0.000  0.000  0.000  0.039
    8  0.078  0.000  0.001  0.001  0.000  0.000  0.000  0.000  0.000  0.081
    9  0.078  0.001  0.001  0.000  0.000  0.000  0.000  0.000  0.000  0.081
   10  0.078  0.001  0.001  0.000  0.000  0.000  0.000  0.000  0.000  0.081
tot    0.585  0.003  0.007  0.003  0.000  0.000  0.000  0.000  0.000  0.599

band     2 # energy  -13.91853580 # occ.  1.00000000

ion      s     py     pz     px    dxy    dyz    dz2    dxz  x2-y2    tot
    1  0.001  0.000  0.006  0.000  0.000  0.000  0.000  0.000  0.000  0.007
    2  0.001  0.000  0.006  0.000  0.000  0.000  0.000  0.000  0.000  0.007
    3  0.044  0.000  0.001  0.000  0.000  0.000  0.000  0.000  0.000  0.045
    4  0.064  0.000  0.002  0.000  0.000  0.000  0.001  0.000  0.000  0.068
    5  0.127  0.000  0.000  0.001  0.000  0.000  0.000  0.000  0.000  0.128
    6  0.127  0.001  0.000  0.000  0.000  0.000  0.000  0.000  0.000  0.128
    7  0.127  0.001  0.000  0.000  0.000  0.000  0.000  0.000  0.000  0.128
    8  0.047  0.000  0.000  0.001  0.000  0.000  0.000  0.000  0.000  0.048
    9  0.047  0.001  0.000  0.000  0.000  0.000  0.000  0.000  0.000  0.048
   10  0.047  0.001  0.000  0.000  0.000  0.000  0.000  0.000  0.000  0.048
tot    0.634  0.002  0.016  0.002  0.000  0.000  0.002  0.000  0.000  0.657

band     3 # energy  -12.79168502 # occ.  1.00000000

ion      s     py     pz     px    dxy    dyz    dz2    dxz  x2-y2    tot
    1  0.000  0.006  0.000  0.000  0.001  0.002  0.000  0.000  0.001  0.011
    2  0.000  0.004  0.000  0.001  0.000  0.001  0.000  0.002  0.002  0.011
    3  0.000  0.001  0.000  0.013  0.000  0.000  0.000  0.000  0.000  0.013
    4  0.000  0.000  0.000  0.000  0.000  0.000  0.000  0.000  0.000  0.000
    5  0.026  0.000  0.000  0.000  0.000  0.000  0.000  0.000  0.000  0.026
    6  0.014  0.000  0.000  0.000  0.000  0.000  0.000  0.000  0.000  0.014
    7  0.002  0.000  0.000  0.000  0.000  0.000  0.000  0.000  0.000  0.002
    8  0.394  0.000  0.001  0.001  0.000  0.000  0.000  0.000  0.000  0.397
    9  0.208  0.000  0.001  0.000  0.000  0.000  0.000  0.000  0.000  0.209
   10  0.030  0.000  0.000  0.000  0.000  0.000  0.000  0.000  0.000  0.030
tot    0.673  0.012  0.002  0.016  0.001  0.004  0.000  0.002  0.003  0.713

band     4 # energy  -12.79165639 # occ.  1.00000000

ion      s     py     pz     px    dxy    dyz    dz2    dxz  x2-y2    tot
    1  0.000  0.000  0.000  0.006  0.001  0.000  0.000  0.002  0.001  0.011
    2  0.000  0.001  0.000  0.004  0.002  0.002  0.000  0.001  0.000  0.011
    3  0.000  0.013  0.000  0.001  0.000  0.000  0.000  0.000  0.000  0.013
    4  0.000  0.000  0.000  0.000  0.000  0.000  0.000  0.000  0.000  0.000
    5  0.002  0.000  0.000  0.000  0.000  0.000  0.000  0.000  0.000  0.002
    6  0.014  0.000  0.000  0.000  0.000  0.000  0.000  0.000  0.000  0.014
    7  0.026  0.000  0.000  0.000  0.000  0.000  0.000  0.000  0.000  0.026
    8  0.027  0.000  0.000  0.000  0.000  0.000  0.000  0.000  0.000  0.027
    9  0.213  0.000  0.001  0.000  0.000  0.000  0.000  0.000  0.000  0.215
   10  0.392  0.001  0.001  0.000  0.000  0.000  0.000  0.000  0.000  0.394
tot    0.673  0.016  0.002  0.012  0.003  0.002  0.000  0.004  0.001  0.713

band     5 # energy  -12.66825090 # occ.  1.00000000

ion      s     py     pz     px    dxy    dyz    dz2    dxz  x2-y2    tot
    1  0.000  0.001  0.000  0.002  0.001  0.005  0.000  0.001  0.001  0.011
    2  0.000  0.003  0.000  0.001  0.002  0.006  0.000  0.000  0.000  0.011
    3  0.000  0.000  0.000  0.002  0.000  0.000  0.000  0.000  0.000  0.002
    4  0.000  0.001  0.000  0.018  0.000  0.000  0.000  0.000  0.002  0.020
    5  0.410  0.000  0.001  0.001  0.000  0.000  0.000  0.000  0.000  0.413
    6  0.178  0.000  0.001  0.000  0.000  0.000  0.000  0.000  0.000  0.179
    7  0.048  0.000  0.000  0.000  0.000  0.000  0.000  0.000  0.000  0.048
    8  0.025  0.000  0.000  0.000  0.000  0.000  0.000  0.000  0.000  0.025
    9  0.011  0.000  0.000  0.000  0.000  0.000  0.000  0.000  0.000  0.011
   10  0.003  0.000  0.000  0.000  0.000  0.000  0.000  0.000  0.000  0.003
tot    0.674  0.005  0.002  0.024  0.004  0.010  0.000  0.001  0.003  0.724

band     6 # energy  -12.66821977 # occ.  1.00000000

ion      s     py     pz     px    dxy    dyz    dz2    dxz  x2-y2    tot
    1  0.000  0.002  0.000  0.001  0.001  0.001  0.000  0.005  0.001  0.011
    2  0.000  0.001  0.000  0.003  0.000  0.000  0.000  0.006  0.002  0.011
    3  0.000  0.002  0.000  0.000  0.000  0.000  0.000  0.000  0.000  0.002
    4  0.000  0.018  0.000  0.001  0.002  0.000  0.000  0.000  0.000  0.020
    5  0.014  0.000  0.000  0.000  0.000  0.000  0.000  0.000  0.000  0.014
    6  0.246  0.001  0.001  0.000  0.000  0.000  0.000  0.000  0.000  0.248
    7  0.376  0.001  0.001  0.000  0.000  0.000  0.000  0.000  0.000  0.378
    8  0.001  0.000  0.000  0.000  0.000  0.000  0.000  0.000  0.000  0.001
    9  0.015  0.000  0.000  0.000  0.000  0.000  0.000  0.000  0.000  0.015
   10  0.023  0.000  0.000  0.000  0.000  0.000  0.000  0.000  0.000  0.023
tot    0.674  0.024  0.002  0.005  0.003  0.001  0.000  0.010  0.004  0.724

band     7 # energy  -11.90253670 # occ.  1.00000000

ion      s     py     pz     px    dxy    dyz    dz2    dxz  x2-y2    tot
    1  0.015  0.000  0.001  0.000  0.000  0.000  0.000  0.000  0.000  0.016
    2  0.015  0.000  0.001  0.000  0.000  0.000  0.000  0.000  0.000  0.016
    3  0.223  0.000  0.006  0.000  0.000  0.000  0.000  0.000  0.000  0.230
    4  0.086  0.000  0.011  0.000  0.000  0.000  0.002  0.000  0.000  0.098
    5  0.012  0.000  0.000  0.003  0.000  0.000  0.000  0.000  0.000  0.015
    6  0.012  0.002  0.000  0.001  0.000  0.000  0.000  0.000  0.000  0.015
    7  0.012  0.002  0.000  0.001  0.000  0.000  0.000  0.000  0.000  0.015
    8  0.071  0.000  0.000  0.008  0.000  0.000  0.000  0.000  0.001  0.080
    9  0.071  0.006  0.000  0.002  0.000  0.000  0.000  0.000  0.000  0.080
   10  0.071  0.006  0.000  0.002  0.000  0.000  0.000  0.000  0.000  0.080
tot    0.589  0.016  0.019  0.016  0.001  0.000  0.002  0.000  0.001  0.645

band     8 # energy   -9.52095388 # occ.  1.00000000

ion      s     py     pz     px    dxy    dyz    dz2    dxz  x2-y2    tot
    1  0.001  0.000  0.006  0.000  0.000  0.000  0.000  0.000  0.000  0.007
    2  0.001  0.000  0.006  0.000  0.000  0.000  0.000  0.000  0.000  0.007
    3  0.090  0.000  0.015  0.000  0.000  0.000  0.000  0.000  0.000  0.106
    4  0.339  0.000  0.001  0.000  0.000  0.000  0.000  0.000  0.000  0.340
    5  0.029  0.000  0.000  0.021  0.000  0.000  0.000  0.000  0.001  0.051
    6  0.029  0.016  0.000  0.005  0.001  0.000  0.000  0.000  0.000  0.051
    7  0.029  0.016  0.000  0.005  0.001  0.000  0.000  0.000  0.000  0.051
    8  0.010  0.000  0.000  0.007  0.000  0.000  0.000  0.000  0.000  0.018
    9  0.010  0.005  0.000  0.002  0.000  0.000  0.000  0.000  0.000  0.018
   10  0.010  0.005  0.000  0.002  0.000  0.000  0.000  0.000  0.000  0.018
tot    0.548  0.042  0.029  0.042  0.003  0.000  0.001  0.000  0.003  0.666

band     9 # energy   -6.91343663 # occ.  1.00000000

ion      s     py     pz     px    dxy    dyz    dz2    dxz  x2-y2    tot
    1  0.000  0.000  0.000  0.004  0.000  0.013  0.000  0.015  0.003  0.035
    2  0.000  0.004  0.000  0.000  0.003  0.021  0.000  0.007  0.000  0.035
    3  0.000  0.039  0.000  0.059  0.000  0.000  0.000  0.000  0.000  0.098
    4  0.000  0.010  0.000  0.015  0.000  0.000  0.000  0.000  0.000  0.025
    5  0.004  0.003  0.003  0.013  0.000  0.000  0.000  0.000  0.000  0.023
    6  0.006  0.018  0.004  0.002  0.000  0.000  0.000  0.000  0.000  0.030
    7  0.000  0.000  0.000  0.007  0.000  0.000  0.000  0.000  0.000  0.008
    8  0.007  0.010  0.001  0.060  0.000  0.000  0.000  0.000  0.000  0.079
    9  0.010  0.081  0.001  0.010  0.000  0.001  0.000  0.000  0.000  0.103
   10  0.000  0.001  0.000  0.026  0.000  0.000  0.000  0.000  0.001  0.028
tot    0.027  0.165  0.009  0.195  0.004  0.034  0.000  0.024  0.004  0.463

band    10 # energy   -6.91341958 # occ.  1.00000000

ion      s     py     pz     px    dxy    dyz    dz2    dxz  x2-y2    tot
    1  0.000  0.004  0.000  0.000  0.003  0.015  0.000  0.013  0.000  0.035
    2  0.000  0.000  0.000  0.004  0.000  0.007  0.000  0.021  0.003  0.035
    3  0.000  0.059  0.000  0.039  0.000  0.000  0.000  0.000  0.000  0.098
    4  0.000  0.015  0.000  0.010  0.000  0.000  0.000  0.000  0.000  0.025
    5  0.003  0.004  0.002  0.009  0.000  0.000  0.000  0.000  0.000  0.017
    6  0.001  0.000  0.001  0.009  0.000  0.000  0.000  0.000  0.000  0.010
    7  0.006  0.017  0.004  0.004  0.000  0.000  0.000  0.000  0.000  0.032
    8  0.005  0.015  0.001  0.040  0.000  0.000  0.000  0.000  0.000  0.061
    9  0.001  0.001  0.000  0.034  0.000  0.000  0.000  0.000  0.000  0.037
   10  0.011  0.080  0.002  0.018  0.000  0.001  0.000  0.000  0.000  0.112
tot    0.027  0.195  0.009  0.165  0.004  0.024  0.000  0.034  0.004  0.463

band    11 # energy   -6.68398289 # occ.  1.00000000

ion      s     py     pz     px    dxy    dyz    dz2    dxz  x2-y2    tot
    1  0.085  0.000  0.000  0.000  0.000  0.000  0.019  0.000  0.000  0.104
    2  0.083  0.000  0.000  0.000  0.000  0.000  0.019  0.000  0.000  0.103
    3  0.000  0.000  0.000  0.000  0.000  0.000  0.000  0.000  0.000  0.000
    4  0.000  0.000  0.000  0.000  0.000  0.000  0.000  0.000  0.000  0.000
    5  0.000  0.048  0.000  0.000  0.000  0.000  0.000  0.000  0.000  0.048
    6  0.000  0.012  0.000  0.036  0.000  0.000  0.000  0.000  0.000  0.048
    7  0.000  0.012  0.000  0.036  0.000  0.000  0.000  0.000  0.000  0.048
    8  0.000  0.053  0.000  0.000  0.000  0.000  0.000  0.000  0.000  0.054
    9  0.000  0.013  0.000  0.039  0.000  0.000  0.000  0.000  0.000  0.054
   10  0.000  0.013  0.000  0.040  0.000  0.000  0.000  0.000  0.000  0.054
tot    0.168  0.151  0.000  0.151  0.001  0.001  0.038  0.001  0.001  0.513

band    12 # energy   -6.63695358 # occ.  1.00000000

ion      s     py     pz     px    dxy    dyz    dz2    dxz  x2-y2    tot
    1  0.038  0.000  0.000  0.000  0.000  0.000  0.013  0.000  0.000  0.051
    2  0.039  0.000  0.000  0.000  0.000  0.000  0.012  0.000  0.000  0.052
    3  0.000  0.000  0.060  0.000  0.000  0.000  0.000  0.000  0.000  0.060
    4  0.004  0.000  0.057  0.000  0.000  0.000  0.001  0.000  0.000  0.062
    5  0.003  0.000  0.028  0.007  0.000  0.000  0.000  0.000  0.000  0.039
    6  0.003  0.006  0.028  0.002  0.000  0.000  0.000  0.000  0.000  0.039
    7  0.003  0.005  0.028  0.002  0.000  0.000  0.000  0.000  0.000  0.039
    8  0.003  0.000  0.032  0.005  0.000  0.000  0.000  0.000  0.000  0.041
    9  0.003  0.004  0.032  0.001  0.000  0.000  0.000  0.000  0.000  0.041
   10  0.003  0.004  0.032  0.001  0.000  0.000  0.000  0.000  0.000  0.041
tot    0.100  0.019  0.297  0.019  0.001  0.000  0.028  0.000  0.001  0.464

band    13 # energy   -6.29609622 # occ.  1.00000000

ion      s     py     pz     px    dxy    dyz    dz2    dxz  x2-y2    tot
    1  0.000  0.014  0.000  0.000  0.004  0.011  0.000  0.006  0.007  0.043
    2  0.000  0.010  0.000  0.005  0.000  0.000  0.000  0.017  0.010  0.043
    3  0.000  0.002  0.000  0.015  0.000  0.000  0.000  0.000  0.000  0.017
    4  0.000  0.010  0.000  0.061  0.000  0.000  0.000  0.001  0.000  0.072
    5  0.001  0.005  0.002  0.099  0.000  0.000  0.000  0.001  0.000  0.108
    6  0.001  0.084  0.002  0.001  0.000  0.000  0.000  0.000  0.000  0.088
    7  0.000  0.017  0.000  0.018  0.000  0.000  0.000  0.000  0.000  0.037
    8  0.000  0.001  0.008  0.026  0.000  0.000  0.000  0.000  0.000  0.036
    9  0.000  0.021  0.005  0.001  0.000  0.000  0.000  0.000  0.000  0.028
   10  0.000  0.004  0.000  0.004  0.000  0.000  0.000  0.000  0.000  0.008
tot    0.002  0.170  0.017  0.231  0.004  0.012  0.001  0.025  0.018  0.480

band    14 # energy   -6.29607688 # occ.  1.00000000

ion      s     py     pz     px    dxy    dyz    dz2    dxz  x2-y2    tot
    1  0.000  0.000  0.000  0.014  0.007  0.006  0.000  0.011  0.004  0.043
    2  0.000  0.005  0.000  0.010  0.010  0.017  0.000  0.000  0.000  0.043
    3  0.000  0.015  0.000  0.002  0.000  0.000  0.000  0.000  0.000  0.017
    4  0.000  0.061  0.000  0.010  0.000  0.001  0.000  0.000  0.000  0.072
    5  0.000  0.030  0.000  0.016  0.001  0.000  0.000  0.000  0.000  0.047
    6  0.000  0.012  0.001  0.053  0.000  0.000  0.000  0.000  0.000  0.067
    7  0.001  0.078  0.003  0.036  0.000  0.000  0.000  0.000  0.000  0.119
    8  0.000  0.006  0.001  0.004  0.000  0.000  0.000  0.000  0.000  0.012
    9  0.000  0.004  0.003  0.012  0.000  0.000  0.000  0.000  0.000  0.020
   10  0.000  0.021  0.009  0.009  0.000  0.000  0.001  0.000  0.000  0.040
tot    0.002  0.231  0.017  0.170  0.018  0.025  0.001  0.012  0.004  0.480

band    15 # energy   -5.38129148 # occ.  1.00000000

ion      s     py     pz     px    dxy    dyz    dz2    dxz  x2-y2    tot
    1  0.000  0.000  0.044  0.000  0.000  0.000  0.000  0.000  0.000  0.044
    2  0.000  0.000  0.044  0.000  0.000  0.000  0.000  0.000  0.000  0.044
    3  0.000  0.000  0.000  0.000  0.000  0.000  0.000  0.000  0.000  0.000
    4  0.000  0.000  0.000  0.000  0.000  0.000  0.000  0.000  0.000  0.000
    5  0.000  0.066  0.000  0.000  0.000  0.000  0.000  0.000  0.000  0.067
    6  0.000  0.016  0.000  0.050  0.000  0.000  0.000  0.000  0.000  0.067
    7  0.000  0.017  0.000  0.049  0.000  0.000  0.000  0.000  0.000  0.067
    8  0.000  0.061  0.000  0.000  0.000  0.000  0.000  0.000  0.000  0.062
    9  0.000  0.015  0.000  0.046  0.000  0.000  0.000  0.000  0.000  0.062
   10  0.000  0.016  0.000  0.046  0.000  0.000  0.000  0.000  0.000  0.062
tot    0.000  0.191  0.088  0.191  0.001  0.000  0.000  0.000  0.001  0.473

band    16 # energy   -4.49419541 # occ.  1.00000000

ion      s     py     pz     px    dxy    dyz    dz2    dxz  x2-y2    tot
    1  0.000  0.002  0.000  0.000  0.008  0.006  0.000  0.096  0.129  0.240
    2  0.000  0.001  0.000  0.000  0.005  0.003  0.000  0.098  0.131  0.239
    3  0.000  0.000  0.000  0.000  0.000  0.000  0.000  0.000  0.000  0.000
    4  0.000  0.000  0.000  0.000  0.000  0.000  0.000  0.000  0.000  0.000
    5  0.002  0.002  0.035  0.002  0.000  0.000  0.000  0.000  0.000  0.040
    6  0.001  0.002  0.017  0.019  0.000  0.000  0.000  0.001  0.000  0.040
    7  0.000  0.007  0.003  0.028  0.000  0.000  0.000  0.001  0.000  0.040
    8  0.002  0.002  0.042  0.002  0.000  0.000  0.000  0.000  0.000  0.049
    9  0.001  0.002  0.020  0.020  0.000  0.000  0.000  0.001  0.000  0.044
   10  0.000  0.007  0.004  0.029  0.000  0.000  0.000  0.001  0.000  0.041
tot    0.006  0.024  0.121  0.101  0.013  0.010  0.001  0.197  0.261  0.733

band    17 # energy   -4.49418491 # occ.  1.00000000

ion      s     py     pz     px    dxy    dyz    dz2    dxz  x2-y2    tot
    1  0.000  0.000  0.000  0.002  0.129  0.096  0.000  0.006  0.008  0.240
    2  0.000  0.000  0.000  0.001  0.131  0.098  0.000  0.003  0.005  0.239
    3  0.000  0.000  0.000  0.000  0.000  0.000  0.000  0.000  0.000  0.000
    4  0.000  0.000  0.000  0.000  0.000  0.000  0.000  0.000  0.000  0.000
    5  0.000  0.037  0.002  0.000  0.000  0.001  0.000  0.000  0.000  0.040
    6  0.001  0.008  0.020  0.010  0.000  0.000  0.000  0.000  0.000  0.040
    7  0.002  0.004  0.033  0.001  0.000  0.000  0.000  0.000  0.000  0.041
    8  0.000  0.037  0.002  0.000  0.000  0.001  0.000  0.000  0.000  0.040
    9  0.001  0.010  0.024  0.009  0.000  0.000  0.000  0.000  0.000  0.045
   10  0.002  0.005  0.040  0.001  0.000  0.000  0.000  0.000  0.000  0.049
tot    0.006  0.101  0.121  0.024  0.261  0.197  0.001  0.010  0.013  0.733

band    18 # energy   -4.48302782 # occ.  1.00000000

ion      s     py     pz     px    dxy    dyz    dz2    dxz  x2-y2    tot
    1  0.004  0.000  0.000  0.000  0.000  0.000  0.116  0.000  0.000  0.120
    2  0.004  0.000  0.000  0.000  0.000  0.000  0.116  0.000  0.000  0.120
    3  0.002  0.000  0.118  0.000  0.000  0.000  0.000  0.000  0.000  0.120
    4  0.000  0.000  0.076  0.000  0.000  0.000  0.006  0.000  0.000  0.082
    5  0.000  0.000  0.016  0.011  0.000  0.000  0.000  0.000  0.000  0.028
    6  0.000  0.009  0.016  0.003  0.000  0.000  0.000  0.000  0.000  0.028
    7  0.000  0.008  0.016  0.003  0.000  0.000  0.000  0.000  0.000  0.028
    8  0.000  0.000  0.008  0.012  0.000  0.000  0.000  0.000  0.000  0.022
    9  0.000  0.009  0.008  0.003  0.000  0.000  0.000  0.000  0.000  0.022
   10  0.000  0.009  0.008  0.003  0.000  0.000  0.000  0.000  0.000  0.022
tot    0.011  0.035  0.265  0.035  0.001  0.001  0.239  0.001  0.001  0.591

band    19 # energy   -4.16354871 # occ.  1.00000000

ion      s     py     pz     px    dxy    dyz    dz2    dxz  x2-y2    tot
    1  0.000  0.000  0.000  0.000  0.084  0.082  0.000  0.022  0.020  0.209
    2  0.000  0.000  0.000  0.001  0.091  0.093  0.000  0.012  0.013  0.210
    3  0.000  0.000  0.000  0.001  0.000  0.000  0.000  0.000  0.000  0.001
    4  0.000  0.000  0.000  0.000  0.000  0.000  0.000  0.002  0.000  0.002
    5  0.004  0.001  0.061  0.002  0.000  0.000  0.000  0.000  0.000  0.069
    6  0.003  0.003  0.047  0.000  0.000  0.000  0.000  0.000  0.000  0.054
    7  0.000  0.001  0.001  0.003  0.000  0.000  0.000  0.000  0.000  0.005
    8  0.005  0.001  0.071  0.001  0.000  0.000  0.000  0.000  0.000  0.078
    9  0.004  0.003  0.054  0.001  0.000  0.000  0.000  0.000  0.000  0.062
   10  0.000  0.003  0.001  0.006  0.000  0.000  0.000  0.000  0.000  0.010
tot    0.016  0.012  0.236  0.016  0.176  0.175  0.000  0.036  0.034  0.701

band    20 # energy   -4.16353734 # occ.  1.00000000

ion      s     py     pz     px    dxy    dyz    dz2    dxz  x2-y2    tot
    1  0.000  0.000  0.000  0.000  0.020  0.022  0.000  0.082  0.084  0.209
    2  0.000  0.001  0.000  0.000  0.013  0.012  0.000  0.093  0.091  0.210
    3  0.000  0.001  0.000  0.000  0.000  0.000  0.000  0.000  0.000  0.001
    4  0.000  0.000  0.000  0.000  0.000  0.002  0.000  0.000  0.000  0.002
    5  0.001  0.004  0.012  0.000  0.000  0.000  0.000  0.000  0.000  0.017
    6  0.002  0.000  0.026  0.004  0.000  0.000  0.000  0.000  0.000  0.031
    7  0.005  0.002  0.072  0.001  0.000  0.000  0.000  0.000  0.000  0.080
    8  0.001  0.007  0.013  0.000  0.000  0.000  0.000  0.000  0.000  0.022
    9  0.002  0.000  0.030  0.006  0.000  0.000  0.000  0.000  0.000  0.038
   10  0.006  0.001  0.083  0.001  0.000  0.000  0.000  0.000  0.000  0.090
tot    0.016  0.016  0.236  0.012  0.034  0.036  0.000  0.175  0.176  0.701

band    21 # energy   -3.65440504 # occ.  1.00000000

ion      s     py     pz     px    dxy    dyz    dz2    dxz  x2-y2    tot
    1  0.000  0.012  0.000  0.001  0.012  0.004  0.000  0.078  0.001  0.107
    2  0.000  0.012  0.000  0.001  0.013  0.002  0.000  0.079  0.001  0.108
    3  0.000  0.000  0.000  0.041  0.000  0.000  0.000  0.000  0.000  0.041
    4  0.000  0.000  0.000  0.015  0.000  0.000  0.000  0.000  0.002  0.017
    5  0.004  0.000  0.077  0.020  0.000  0.000  0.000  0.000  0.000  0.102
    6  0.001  0.000  0.018  0.011  0.000  0.000  0.000  0.000  0.000  0.030
    7  0.001  0.001  0.021  0.011  0.000  0.000  0.000  0.000  0.000  0.034
    8  0.007  0.000  0.058  0.021  0.000  0.000  0.000  0.000  0.002  0.088
    9  0.002  0.000  0.013  0.026  0.000  0.000  0.000  0.000  0.000  0.043
   10  0.002  0.000  0.016  0.026  0.000  0.000  0.000  0.000  0.000  0.045
tot    0.016  0.025  0.202  0.173  0.025  0.007  0.000  0.159  0.007  0.614

band    22 # energy   -3.65439209 # occ.  1.00000000

ion      s     py     pz     px    dxy    dyz    dz2    dxz  x2-y2    tot
    1  0.000  0.001  0.000  0.012  0.001  0.078  0.000  0.004  0.012  0.107
    2  0.000  0.001  0.000  0.012  0.001  0.079  0.000  0.002  0.013  0.108
    3  0.000  0.041  0.000  0.000  0.000  0.000  0.000  0.000  0.000  0.041
    4  0.000  0.015  0.000  0.000  0.002  0.000  0.000  0.000  0.000  0.017
    5  0.000  0.008  0.000  0.000  0.000  0.001  0.000  0.000  0.000  0.009
    6  0.003  0.017  0.059  0.001  0.000  0.000  0.000  0.000  0.000  0.080
    7  0.003  0.017  0.056  0.000  0.000  0.000  0.000  0.000  0.000  0.077
    8  0.000  0.028  0.000  0.000  0.000  0.001  0.000  0.000  0.000  0.029
    9  0.005  0.023  0.044  0.000  0.001  0.000  0.000  0.000  0.000  0.074
   10  0.005  0.023  0.042  0.000  0.001  0.000  0.000  0.000  0.000  0.072
tot    0.016  0.173  0.202  0.025  0.007  0.159  0.000  0.007  0.025  0.614

band    23 # energy   -3.49943251 # occ.  1.00000000

ion      s     py     pz     px    dxy    dyz    dz2    dxz  x2-y2    tot
    1  0.000  0.000  0.014  0.000  0.000  0.000  0.005  0.000  0.000  0.020
    2  0.000  0.000  0.014  0.000  0.000  0.000  0.005  0.000  0.000  0.019
    3  0.001  0.000  0.005  0.000  0.000  0.000  0.000  0.000  0.000  0.006
    4  0.003  0.000  0.014  0.000  0.000  0.000  0.001  0.000  0.000  0.018
    5  0.000  0.000  0.066  0.001  0.000  0.000  0.000  0.000  0.000  0.068
    6  0.000  0.001  0.066  0.000  0.000  0.000  0.000  0.000  0.000  0.068
    7  0.000  0.001  0.066  0.000  0.000  0.000  0.000  0.000  0.000  0.068
    8  0.001  0.000  0.064  0.000  0.000  0.000  0.000  0.000  0.000  0.065
    9  0.001  0.000  0.064  0.000  0.000  0.000  0.000  0.000  0.000  0.065
   10  0.001  0.000  0.064  0.000  0.000  0.000  0.000  0.000  0.000  0.065
tot    0.006  0.002  0.437  0.002  0.000  0.000  0.012  0.000  0.000  0.459

band    24 # energy   -3.13899335 # occ.  1.00000000

ion      s     py     pz     px    dxy    dyz    dz2    dxz  x2-y2    tot
    1  0.000  0.002  0.000  0.005  0.101  0.065  0.000  0.073  0.121  0.367
    2  0.000  0.001  0.000  0.007  0.208  0.130  0.000  0.001  0.002  0.349
    3  0.000  0.007  0.000  0.002  0.000  0.000  0.000  0.000  0.000  0.008
    4  0.000  0.000  0.000  0.000  0.001  0.000  0.000  0.000  0.000  0.002
    5  0.000  0.004  0.006  0.000  0.001  0.000  0.000  0.000  0.000  0.011
    6  0.002  0.001  0.028  0.000  0.000  0.000  0.000  0.000  0.000  0.031
    7  0.001  0.002  0.009  0.002  0.000  0.000  0.000  0.000  0.000  0.014
    8  0.000  0.001  0.004  0.000  0.001  0.000  0.000  0.000  0.000  0.006
    9  0.000  0.000  0.017  0.000  0.001  0.000  0.000  0.000  0.000  0.018
   10  0.000  0.000  0.005  0.001  0.001  0.000  0.000  0.000  0.000  0.007
tot    0.002  0.019  0.068  0.017  0.313  0.195  0.000  0.075  0.124  0.814

band    25 # energy   -3.13898754 # occ.  1.00000000

ion      s     py     pz     px    dxy    dyz    dz2    dxz  x2-y2    tot
    1  0.000  0.005  0.000  0.002  0.121  0.073  0.000  0.064  0.101  0.367
    2  0.000  0.007  0.000  0.001  0.002  0.001  0.000  0.130  0.208  0.349
    3  0.000  0.002  0.000  0.007  0.000  0.000  0.000  0.000  0.000  0.008
    4  0.000  0.000  0.000  0.000  0.000  0.000  0.000  0.000  0.001  0.002
    5  0.001  0.001  0.022  0.001  0.000  0.000  0.000  0.000  0.000  0.027
    6  0.000  0.001  0.000  0.004  0.000  0.000  0.000  0.000  0.001  0.007
    7  0.001  0.000  0.020  0.002  0.000  0.000  0.000  0.000  0.000  0.024
    8  0.000  0.000  0.014  0.000  0.000  0.000  0.000  0.000  0.001  0.015
    9  0.000  0.000  0.000  0.001  0.000  0.000  0.000  0.000  0.001  0.002
   10  0.000  0.000  0.012  0.000  0.000  0.000  0.000  0.000  0.001  0.014
tot    0.002  0.017  0.068  0.019  0.124  0.075  0.000  0.195  0.313  0.814

band    26 # energy   -3.11264718 # occ.  1.00000000

ion      s     py     pz     px    dxy    dyz    dz2    dxz  x2-y2    tot
    1  0.013  0.000  0.000  0.000  0.000  0.000  0.433  0.000  0.000  0.446
    2  0.013  0.000  0.000  0.000  0.000  0.000  0.430  0.000  0.000  0.443
    3  0.000  0.000  0.000  0.000  0.000  0.000  0.000  0.000  0.000  0.000
    4  0.000  0.000  0.000  0.000  0.000  0.000  0.000  0.000  0.000  0.000
    5  0.000  0.001  0.000  0.000  0.000  0.000  0.000  0.000  0.000  0.002
    6  0.000  0.000  0.000  0.001  0.000  0.000  0.000  0.000  0.000  0.002
    7  0.000  0.000  0.000  0.001  0.000  0.000  0.000  0.000  0.000  0.002
    8  0.000  0.002  0.000  0.000  0.000  0.000  0.000  0.000  0.000  0.002
    9  0.000  0.000  0.000  0.001  0.000  0.000  0.000  0.000  0.000  0.002
   10  0.000  0.000  0.000  0.001  0.000  0.000  0.000  0.000  0.000  0.002
tot    0.026  0.005  0.000  0.005  0.000  0.001  0.863  0.001  0.000  0.902

band    27 # energy   -3.06208291 # occ.  1.00000000

ion      s     py     pz     px    dxy    dyz    dz2    dxz  x2-y2    tot
    1  0.000  0.000  0.000  0.000  0.158  0.064  0.000  0.082  0.091  0.395
    2  0.000  0.000  0.000  0.000  0.259  0.146  0.000  0.006  0.000  0.412
    3  0.000  0.001  0.000  0.007  0.000  0.000  0.000  0.000  0.000  0.008
    4  0.000  0.003  0.000  0.026  0.000  0.000  0.000  0.000  0.000  0.029
    5  0.002  0.000  0.003  0.009  0.000  0.000  0.000  0.000  0.001  0.016
    6  0.000  0.000  0.000  0.001  0.000  0.000  0.000  0.000  0.000  0.001
    7  0.001  0.003  0.002  0.002  0.000  0.000  0.000  0.000  0.000  0.010
    8  0.002  0.000  0.003  0.000  0.000  0.000  0.001  0.000  0.000  0.005
    9  0.000  0.000  0.000  0.000  0.000  0.000  0.000  0.000  0.000  0.001
   10  0.001  0.000  0.002  0.000  0.000  0.000  0.000  0.000  0.000  0.004
tot    0.006  0.007  0.010  0.046  0.418  0.210  0.002  0.088  0.093  0.880

band    28 # energy   -3.06207604 # occ.  1.00000000

ion      s     py     pz     px    dxy    dyz    dz2    dxz  x2-y2    tot
    1  0.000  0.000  0.000  0.000  0.091  0.082  0.000  0.064  0.158  0.395
    2  0.000  0.000  0.000  0.000  0.000  0.006  0.000  0.146  0.259  0.412
    3  0.000  0.007  0.000  0.001  0.000  0.000  0.000  0.000  0.000  0.008
    4  0.000  0.026  0.000  0.003  0.000  0.000  0.000  0.000  0.000  0.029
    5  0.000  0.000  0.000  0.001  0.000  0.000  0.000  0.000  0.000  0.002
    6  0.002  0.008  0.003  0.002  0.001  0.000  0.000  0.000  0.000  0.017
    7  0.001  0.004  0.002  0.001  0.000  0.000  0.000  0.000  0.000  0.008
    8  0.000  0.000  0.000  0.000  0.000  0.000  0.000  0.000  0.000  0.001
    9  0.002  0.000  0.003  0.000  0.000  0.000  0.001  0.000  0.000  0.005
   10  0.001  0.000  0.001  0.000  0.000  0.000  0.000  0.000  0.000  0.003
tot    0.006  0.046  0.010  0.007  0.093  0.088  0.002  0.210  0.418  0.880

band    29 # energy   -2.97626715 # occ.  1.00000000

ion      s     py     pz     px    dxy    dyz    dz2    dxz  x2-y2    tot
    1  0.017  0.000  0.000  0.000  0.000  0.000  0.284  0.000  0.000  0.301
    2  0.016  0.000  0.000  0.000  0.000  0.000  0.289  0.000  0.000  0.306
    3  0.002  0.000  0.041  0.000  0.000  0.000  0.000  0.000  0.000  0.043
    4  0.004  0.000  0.030  0.000  0.000  0.000  0.001  0.000  0.000  0.035
    5  0.003  0.000  0.007  0.001  0.000  0.000  0.001  0.000  0.000  0.011
    6  0.003  0.000  0.007  0.000  0.000  0.000  0.001  0.000  0.000  0.011
    7  0.003  0.000  0.007  0.000  0.000  0.000  0.001  0.000  0.000  0.011
    8  0.003  0.000  0.017  0.000  0.000  0.000  0.001  0.000  0.000  0.021
    9  0.003  0.000  0.017  0.000  0.000  0.000  0.001  0.000  0.000  0.021
   10  0.003  0.000  0.017  0.000  0.000  0.000  0.001  0.000  0.000  0.021
tot    0.055  0.001  0.144  0.001  0.000  0.001  0.580  0.001  0.000  0.781

band    30 # energy   -2.31198208 # occ.  1.00000000

ion      s     py     pz     px    dxy    dyz    dz2    dxz  x2-y2    tot
    1  0.000  0.002  0.000  0.028  0.018  0.001  0.000  0.002  0.002  0.053
    2  0.000  0.003  0.000  0.027  0.017  0.000  0.000  0.003  0.002  0.053
    3  0.000  0.002  0.000  0.017  0.000  0.000  0.000  0.000  0.000  0.019
    4  0.000  0.002  0.000  0.018  0.000  0.000  0.000  0.000  0.003  0.024
    5  0.002  0.010  0.007  0.035  0.000  0.000  0.000  0.000  0.002  0.055
    6  0.000  0.016  0.000  0.095  0.000  0.000  0.000  0.001  0.000  0.112
    7  0.001  0.000  0.004  0.073  0.001  0.000  0.000  0.000  0.000  0.080
    8  0.002  0.010  0.017  0.014  0.000  0.000  0.000  0.000  0.002  0.045
    9  0.000  0.020  0.001  0.090  0.000  0.000  0.000  0.000  0.000  0.112
   10  0.001  0.001  0.010  0.060  0.001  0.000  0.000  0.000  0.000  0.074
tot    0.006  0.066  0.039  0.458  0.037  0.002  0.001  0.007  0.011  0.626

band    31 # energy   -2.31195255 # occ.  1.00000000

ion      s     py     pz     px    dxy    dyz    dz2    dxz  x2-y2    tot
    1  0.000  0.028  0.000  0.002  0.002  0.002  0.000  0.001  0.018  0.053
    2  0.000  0.027  0.000  0.003  0.002  0.003  0.000  0.000  0.017  0.053
    3  0.000  0.017  0.000  0.002  0.000  0.000  0.000  0.000  0.000  0.019
    4  0.000  0.018  0.000  0.002  0.003  0.000  0.000  0.000  0.000  0.024
    5  0.000  0.105  0.001  0.003  0.000  0.001  0.000  0.000  0.000  0.110
    6  0.002  0.041  0.007  0.001  0.001  0.000  0.000  0.000  0.000  0.053
    7  0.001  0.057  0.003  0.022  0.001  0.000  0.000  0.000  0.000  0.085
    8  0.000  0.105  0.002  0.001  0.000  0.000  0.000  0.000  0.000  0.109
    9  0.002  0.021  0.017  0.000  0.001  0.000  0.000  0.000  0.000  0.042