<?xml version="1.0" encoding="ISO-8859-1"?>
<modeling>
 <generator>
  <i name="program" type="string">vasp </i>
  <i name="version" type="string">5.4.4.18Apr17-6-g9f103f2a35  </i>
  <i name="subversion" type="string">(build May  1 2020 15:48:39) complex            parallel </i>
  <i name="platform" type="string">LinuxGNU </i>
  <i name="date" type="string">2020 06 17 </i>
  <i name="time" type="string">21:31:16 </i>
 </generator>
 <incar>
  <i type="int" name="ISTART">     1</i>
  <i type="string" name="PREC">accurate</i>
  <i type="string" name="ALGO"> Normal</i>
  <i type="int" name="ISPIN">     2</i>
  <i name="AMIN">      0.01000000</i>
  <i type="int" name="NELM">   400</i>
  <i type="int" name="IBRION">     2</i>
  <i name="EDIFF">      0.00010000</i>
  <i type="int" name="NSW">    99</i>
  <i type="int" name="ISIF">     3</i>
  <i name="ENCUT">    520.00000000</i>
  <v name="MAGMOM">      5.00000000      5.00000000      0.60000000      0.60000000      0.60000000      0.60000000      0.60000000      0.60000000      0.60000000      0.60000000</v>
  <i type="string" name="LREAL"> Auto</i>
  <i type="int" name="ISMEAR">    -5</i>
  <i name="SIGMA">      0.05000000</i>
  <i type="logical" name="LWAVE"> F  </i>
  <i type="int" name="LORBIT">    11</i>
  <v type="int" name="KPOINT_BSE">    -1     0     0     0</v>
  <i type="int" name="NELM">   400</i>
  <i type="string" name="GGA"> Bo</i>
  <i name="PARAM1">      0.18333333</i>
  <i name="PARAM2">      0.22000000</i>
  <i type="logical" name="LUSE_VDW"> T  </i>
  <i name="AGGAC">      0.00000000</i>
 </incar>
 <structure name="primitive_cell" >
  <crystal>
   <varray name="basis" >
    <v>       6.90777700      -0.00000000       0.00000000 </v>
    <v>       3.45388800       5.98231000       0.00000000 </v>
    <v>       0.00000000       0.00000000      23.44458800 </v>
   </varray>
   <i name="volume">    968.83501932 </i>
   <varray name="rec_basis" >
    <v>       0.14476437      -0.08357974       0.00000000 </v>
    <v>       0.00000000       0.16715951      -0.00000000 </v>
    <v>      -0.00000000       0.00000000       0.04265377 </v>
   </varray>
  </crystal>
  <varray name="positions" >
   <v>       0.33333300       0.33333300       0.49992500 </v>
   <v>       0.00042000       0.37322400      -0.42624800 </v>
   <v>      -0.37364300       0.00042000      -0.42624800 </v>
   <v>       0.37322400      -0.37364300      -0.42624800 </v>
   <v>       0.37364300      -0.00042000       0.42624800 </v>
   <v>      -0.37322400       0.37364300       0.42624800 </v>
   <v>      -0.00042000      -0.37322400       0.42624800 </v>
   <v>      -0.33333300      -0.33333300      -0.49992500 </v>
   <v>       0.00000000       0.00000000       0.44821600 </v>
   <v>       0.00000000       0.00000000      -0.44821600 </v>
  </varray>
 </structure>
 <varray name="primitive_index" >
  <v type="int" >        1 </v>
  <v type="int" >        6 </v>
  <v type="int" >        5 </v>
  <v type="int" >        7 </v>
  <v type="int" >        8 </v>
  <v type="int" >       10 </v>
  <v type="int" >        9 </v>
  <v type="int" >        2 </v>
  <v type="int" >        3 </v>
  <v type="int" >        4 </v>
 </varray>
 <kpoints>
  <generation param="Gamma">
   <v type="int" name="divisions">       5        5        1 </v>
   <v name="usershift">      0.00000000       0.00000000       0.00000000 </v>
   <v name="genvec1">      0.20000000       0.00000000       0.00000000 </v>
   <v name="genvec2">      0.00000000       0.20000000       0.00000000 </v>
   <v name="genvec3">      0.00000000       0.00000000       1.00000000 </v>
   <v name="shift">      0.00000000       0.00000000       0.00000000 </v>
  </generation>
  <varray name="kpointlist" >
   <v>       0.00000000       0.00000000       0.00000000 </v>
   <v>       0.20000000       0.00000000       0.00000000 </v>
   <v>       0.40000000       0.00000000       0.00000000 </v>
   <v>       0.40000000       0.20000000       0.00000000 </v>
   <v>      -0.40000000       0.20000000       0.00000000 </v>
  </varray>
  <varray name="weights" >
   <v>       0.04000000 </v>
   <v>       0.24000000 </v>
   <v>       0.24000000 </v>
   <v>       0.24000000 </v>
   <v>       0.24000000 </v>
  </varray>
  <varray name="tetrahedronlist"  type="int" >
   <v type="int" >        6        1        1        2        2 </v>
   <v type="int" >       12        1        2        2        2 </v>
   <v type="int" >       12        2        2        3        4 </v>
   <v type="int" >       12        2        2        2        4 </v>
   <v type="int" >       12        2        3        3        4 </v>
   <v type="int" >       12        2        3        4        4 </v>
   <v type="int" >        6        2        2        4        4 </v>
   <v type="int" >       12        3        3        3        5 </v>
   <v type="int" >       12        3        3        4        5 </v>
   <v type="int" >       12        3        4        4        5 </v>
   <v type="int" >        6        3        3        5        5 </v>
   <v type="int" >       12        3        4        5        5 </v>
   <v type="int" >        6        4        4        5        5 </v>
   <v type="int" >       12        4        5        5        5 </v>
   <v type="int" >        6        5        5        5        5 </v>
  </varray>
  <i name="volumeweight">      0.00666667 </i>
 </kpoints>
 <parameters>
  <separator name="general" >
   <i type="string" name="SYSTEM">unknown system</i>
   <i type="logical" name="LCOMPAT"> F  </i>
  </separator>
  <separator name="electronic" >
   <i type="string" name="PREC">accura</i>
   <i name="ENMAX">    520.00000000</i>
   <i name="ENAUG">    402.10800000</i>
   <i name="EDIFF">      0.00010000</i>
   <i type="int" name="IALGO">    38</i>
   <i type="int" name="IWAVPR">    11</i>
   <i type="int" name="NBANDS">    48</i>
   <i name="NELECT">     57.00000000</i>
   <i type="int" name="TURBO">     0</i>
   <i type="int" name="IRESTART">     0</i>
   <i type="int" name="NREBOOT">     0</i>
   <i type="int" name="NMIN">     0</i>
   <i name="EREF">      0.00000000</i>
   <separator name="electronic smearing" >
    <i type="int" name="ISMEAR">    -5</i>
    <i name="SIGMA">      0.05000000</i>
    <i name="KSPACING">      0.50000000</i>
    <i type="logical" name="KGAMMA"> T  </i>
   </separator>
   <separator name="electronic projectors" >
    <i type="logical" name="LREAL"> T  </i>
    <v name="ROPT">     -0.00025000     -0.00025000     -0.00025000     -0.00025000</v>
    <i type="int" name="LMAXPAW">  -100</i>
    <i type="int" name="LMAXMIX">     2</i>
    <i type="logical" name="NLSPLINE"> F  </i>
   </separator>
   <separator name="electronic startup" >
    <i type="int" name="ISTART">     0</i>
    <i type="int" name="ICHARG">     2</i>
    <i type="int" name="INIWAV">     1</i>
   </separator>
   <separator name="electronic spin" >
    <i type="int" name="ISPIN">     2</i>
    <i type="logical" name="LNONCOLLINEAR"> F  </i>
    <v name="MAGMOM">      5.00000000      5.00000000      0.60000000      0.60000000      0.60000000      0.60000000      0.60000000      0.60000000      0.60000000      0.60000000</v>
    <i name="NUPDOWN">     -1.00000000</i>
    <i type="logical" name="LSORBIT"> F  </i>
    <v name="SAXIS">      0.00000000      0.00000000      1.00000000</v>
    <i type="logical" name="LSPIRAL"> F  </i>
    <v name="QSPIRAL">      0.00000000      0.00000000      0.00000000</v>
    <i type="logical" name="LZEROZ"> F  </i>
   </separator>
   <separator name="electronic exchange-correlation" >
    <i type="logical" name="LASPH"> F  </i>
    <i type="logical" name="LMETAGGA"> F  </i>
   </separator>
   <separator name="electronic convergence" >
    <i type="int" name="NELM">   400</i>
    <i type="int" name="NELMDL">     0</i>
    <i type="int" name="NELMIN">     2</i>
    <i name="ENINI">    520.00000000</i>
    <separator name="electronic convergence detail" >
     <i type="logical" name="LDIAG"> T  </i>
     <i type="logical" name="LSUBROT"> F  </i>
     <i name="WEIMIN">      0.00100000</i>
     <i name="EBREAK">      0.00000052</i>
     <i name="DEPER">      0.30000000</i>
     <i type="int" name="NRMM">     4</i>
     <i name="TIME">      0.40000000</i>
    </separator>
   </separator>
   <separator name="electronic mixer" >
    <i name="AMIX">      0.40000000</i>
    <i name="BMIX">      1.00000000</i>
    <i name="AMIN">      0.01000000</i>
    <i name="AMIX_MAG">      1.60000000</i>
    <i name="BMIX_MAG">      1.00000000</i>
    <separator name="electronic mixer details" >
     <i type="int" name="IMIX">     4</i>
     <i type="logical" name="MIXFIRST"> F  </i>
     <i type="int" name="MAXMIX">   -45</i>
     <i name="WC">    100.00000000</i>
     <i type="int" name="INIMIX">     1</i>
     <i type="int" name="MIXPRE">     1</i>
     <i type="int" name="MREMOVE">     5</i>
    </separator>
   </separator>
   <separator name="electronic dipolcorrection" >
    <i type="logical" name="LDIPOL"> F  </i>
    <i type="logical" name="LMONO"> F  </i>
    <i type="int" name="IDIPOL">     0</i>
    <i name="EPSILON">      1.00000000</i>
    <v name="DIPOL">   -100.00000000   -100.00000000   -100.00000000</v>
    <i name="EFIELD">      0.00000000</i>
   </separator>
  </separator>
  <separator name="grids" >
   <i type="int" name="NGX">    54</i>
   <i type="int" name="NGY">    54</i>
   <i type="int" name="NGZ">   180</i>
   <i type="int" name="NGXF">   108</i>
   <i type="int" name="NGYF">   108</i>
   <i type="int" name="NGZF">   360</i>
   <i type="logical" name="ADDGRID"> F  </i>
  </separator>
  <separator name="ionic" >
   <i type="int" name="NSW">    99</i>
   <i type="int" name="IBRION">     2</i>
   <i type="int" name="MDALGO">     0</i>
   <i type="int" name="ISIF">     3</i>
   <i name="PSTRESS">      0.00000000</i>
   <i name="EDIFFG">      0.00100000</i>
   <i type="int" name="NFREE">     1</i>
   <i name="POTIM">      0.50000000</i>
   <i name="SMASS">     -3.00000000</i>
   <i name="SCALEE">      1.00000000</i>
  </separator>
  <separator name="ionic md" >
   <i name="TEBEG">      0.00010000</i>
   <i name="TEEND">      0.00010000</i>
   <i type="int" name="NBLOCK">     1</i>
   <i type="int" name="KBLOCK">    99</i>
   <i type="int" name="NPACO">   256</i>
   <i name="APACO">     16.00000000</i>
  </separator>
  <separator name="symmetry" >
   <i type="int" name="ISYM">     2</i>
   <i name="SYMPREC">      0.00001000</i>
  </separator>
  <separator name="dos" >
   <i type="int" name="LORBIT">    11</i>
   <v name="RWIGS">     -1.00000000     -1.00000000     -1.00000000     -1.00000000</v>
   <i type="int" name="NEDOS">   301</i>
   <i name="EMIN">     10.00000000</i>
   <i name="EMAX">    -10.00000000</i>
   <i name="EFERMI">      0.00000000</i>
  </separator>
  <separator name="writing" >
   <i type="int" name="NWRITE">     2</i>
   <i type="logical" name="LWAVE"> F  </i>
   <i type="logical" name="LDOWNSAMPLE"> F  </i>
   <i type="logical" name="LCHARG"> T  </i>
   <i type="logical" name="LPARD"> F  </i>
   <i type="logical" name="LVTOT"> F  </i>
   <i type="logical" name="LVHAR"> F  </i>
   <i type="logical" name="LELF"> F  </i>
   <i type="logical" name="LOPTICS"> F  </i>
   <v name="STM">      0.00000000      0.00000000      0.00000000      0.00000000      0.00000000      0.00000000      0.00000000</v>
  </separator>
  <separator name="performance" >
   <i type="int" name="NPAR">    16</i>
   <i type="int" name="NSIM">     4</i>
   <i type="int" name="NBLK">    -1</i>
   <i type="logical" name="LPLANE"> T  </i>
   <i type="logical" name="LSCALAPACK"> T  </i>
   <i type="logical" name="LSCAAWARE"> F  </i>
   <i type="logical" name="LSCALU"> F  </i>
   <i type="logical" name="LASYNC"> F  </i>
   <i type="logical" name="LORBITALREAL"> F  </i>
  </separator>
  <separator name="miscellaneous" >
   <i type="int" name="IDIOT">     3</i>
   <i type="int" name="ISPECIAL">     0</i>
   <i type="logical" name="LMUSIC"> F  </i>
   <v name="POMASS">     51.99600000     30.97400000     72.61000000    127.60000000</v>
   <v name="DARWINR">      0.00000000      0.00000000      0.00000000      0.00000000</v>
   <v name="DARWINV">      1.00000000      1.00000000      1.00000000      1.00000000</v>
   <i type="logical" name="LCORR"> T  </i>
  </separator>
  <i type="logical" name="GGA_COMPAT"> T  </i>
  <i type="logical" name="LBERRY"> F  </i>
  <i type="int" name="ICORELEVEL">     0</i>
  <i type="logical" name="LDAU"> F  </i>
  <i type="int" name="I_CONSTRAINED_M">     0</i>
  <separator name="electronic exchange-correlation" >
   <i type="string" name="GGA">BO</i>
   <i type="int" name="VOSKOWN">     0</i>
   <i type="logical" name="LHFCALC"> F  </i>
   <i type="string" name="PRECFOCK"></i>
   <i type="logical" name="LSYMGRAD"> F  </i>
   <i type="logical" name="LHFONE"> F  </i>
   <i type="logical" name="LRHFCALC"> F  </i>
   <i type="logical" name="LTHOMAS"> F  </i>
   <i type="logical" name="LMODELHF"> F  </i>
   <i name="ENCUT4O">     -1.00000000</i>
   <i type="int" name="EXXOEP">     0</i>
   <i type="int" name="FOURORBIT">     0</i>
   <i name="AEXX">      0.00000000</i>
   <i name="HFALPHA">      0.00000000</i>
   <i name="MCALPHA">      0.00000000</i>
   <i name="ALDAX">      1.00000000</i>
   <i name="AGGAX">      1.00000000</i>
   <i name="ALDAC">      1.00000000</i>
   <i name="AGGAC">      0.00000000</i>
   <i type="int" name="NKREDX">     1</i>
   <i type="int" name="NKREDY">     1</i>
   <i type="int" name="NKREDZ">     1</i>
   <i type="logical" name="SHIFTRED"> F  </i>
   <i type="logical" name="ODDONLY"> F  </i>
   <i type="logical" name="EVENONLY"> F  </i>
   <i type="int" name="LMAXFOCK">     0</i>
   <i type="int" name="NMAXFOCKAE">     0</i>
   <i type="logical" name="LFOCKAEDFT"> F  </i>
   <i name="HFSCREEN">      0.00000000</i>
   <i name="HFSCREENC">      0.00000000</i>
   <i type="int" name="NBANDSGWLOW">     0</i>
  </separator>
  <separator name="vdW DFT" >
   <i type="logical" name="LUSE_VDW"> T  </i>
   <i name="Zab_VDW">     -0.84910000</i>
   <i name="PARAM1">      0.18333333</i>
   <i name="PARAM2">      0.22000000</i>
   <i name="PARAM3">      0.00000000</i>
  </separator>
  <separator name="model GW" >
   <i type="int" name="MODEL_GW">     0</i>
   <i name="MODEL_EPS0">     58.13010116</i>
   <i name="MODEL_ALPHA">      1.00000000</i>
  </separator>
  <separator name="linear response parameters" >
   <i type="logical" name="LEPSILON"> F  </i>
   <i type="logical" name="LRPA"> F  </i>
   <i type="logical" name="LNABLA"> F  </i>
   <i type="logical" name="LVEL"> F  </i>
   <i type="int" name="KINTER">     0</i>
   <i name="CSHIFT">      0.10000000</i>
   <i name="OMEGAMAX">     -1.00000000</i>
   <i name="DEG_THRESHOLD">      0.00200000</i>
   <i name="RTIME">     -0.10000000</i>
   <i name="WPLASMAI">      0.00000000</i>
   <v name="DFIELD">      0.00000000      0.00000000      0.00000000</v>
   <v name="WPLASMA">      0.00000000      0.00000000      0.00000000      0.00000000      0.00000000      0.00000000      0.00000000      0.00000000      0.00000000</v>
  </separator>
  <separator name="orbital magnetization" >
   <i type="logical" name="NUCIND"> F  </i>
   <v name="MAGPOS">      0.00000000      0.00000000      0.00000000</v>
   <i type="logical" name="LNICSALL"> T  </i>
   <i type="logical" name="ORBITALMAG"> F  </i>
   <i type="logical" name="LMAGBLOCH"> F  </i>
   <i type="logical" name="LCHIMAG"> F  </i>
   <i type="logical" name="LGAUGE"> T  </i>
   <i type="int" name="MAGATOM">     0</i>
   <v name="MAGDIPOL">      0.00000000      0.00000000      0.00000000</v>
   <v name="AVECCONST">      0.00000000      0.00000000      0.00000000</v>
  </separator>
  <separator name="response functions" >
   <i type="logical" name="LADDER"> F  </i>
   <i type="logical" name="LRPAFORCE"> F  </i>
   <i type="logical" name="LFXC"> F  </i>
   <i type="logical" name="LHARTREE"> T  </i>
   <i type="int" name="IBSE">     0</i>
   <v type="int" name="KPOINT">    -1     0     0     0</v>
   <i type="logical" name="LTCTE"> F  </i>
   <i type="logical" name="LTETE"> F  </i>
   <i type="logical" name="LTRIPLET"> F  </i>
   <i type="logical" name="LFXCEPS"> F  </i>
   <i type="logical" name="LFXHEG"> F  </i>
   <i type="int" name="NATURALO">     2</i>
   <i type="logical" name="L2ORDER"> F  </i>
   <i type="logical" name="LMP2LT"> F  </i>
   <i type="logical" name="LUSEW"> F  </i>
   <i name="ENCUTGW">     -2.00000000</i>
   <i name="ENCUTGWSOFT">     -2.00000000</i>
   <i name="ENCUTLF">     -1.00000000</i>
   <i type="int" name="LMAXMP2">    -1</i>
   <i name="SCISSOR">      0.00000000</i>
   <i type="int" name="NOMEGA">     0</i>
   <i type="int" name="NOMEGAR">     0</i>
   <i type="int" name="NBANDSGW">    -1</i>
   <i type="int" name="NBANDSO">    -1</i>
   <i type="int" name="NBANDSV">    -1</i>
   <i type="int" name="NELM">   400</i>
   <i type="int" name="NELMHF">     1</i>
   <i type="int" name="DIM">     3</i>
   <i type="int" name="ANTIRES">     0</i>
   <i name="OMEGAMAX">    -30.00000000</i>
   <i name="OMEGAMIN">    -30.00000000</i>
   <i name="OMEGATL">   -200.00000000</i>
   <i type="int" name="OMEGAGRID">   140</i>
   <i name="CSHIFT">     -0.10000000</i>
   <i type="logical" name="SELFENERGY"> F  </i>
   <i type="logical" name="LSPECTRAL"> F  </i>
   <i type="logical" name="LSPECTRALGW"> F  </i>
   <i type="logical" name="LSINGLES"> F  </i>
   <i type="logical" name="LFERMIGW"> F  </i>
   <i type="logical" name="ODDONLYGW"> F  </i>
   <i type="logical" name="EVENONLYGW"> F  </i>
   <i type="int" name="NKREDLFX">     1</i>
   <i type="int" name="NKREDLFY">     1</i>
   <i type="int" name="NKREDLFZ">     1</i>
   <i type="int" name="MAXMEM">  2800</i>
   <i type="int" name="TELESCOPE">     0</i>
   <i type="int" name="TAUPAR">     1</i>
   <i type="int" name="OMEGAPAR">    -1</i>
   <i name="LAMBDA">      1.00000000</i>
  </separator>
  <separator name="External order field" >
   <i name="OFIELD_KAPPA">      0.00000000</i>
   <v name="OFIELD_K">      0.00000000      0.00000000      0.00000000</v>
   <i name="OFIELD_Q6_NEAR">      0.00000000</i>
   <i name="OFIELD_Q6_FAR">      0.00000000</i>
   <i name="OFIELD_A">      0.00000000</i>
  </separator>
 </parameters>
 <atominfo>
  <atoms>      10 </atoms>
  <types>       4 </types>
  <array name="atoms" >
   <dimension dim="1">ion</dimension>
   <field type="string">element</field>
   <field type="int">atomtype</field>
   <set>
    <rc><c>Cr</c><c>   1</c></rc>
    <rc><c>Cr</c><c>   1</c></rc>
    <rc><c>P </c><c>   2</c></rc>
    <rc><c>Ge</c><c>   3</c></rc>
    <rc><c>Te</c><c>   4</c></rc>
    <rc><c>Te</c><c>   4</c></rc>
    <rc><c>Te</c><c>   4</c></rc>
    <rc><c>Te</c><c>   4</c></rc>
    <rc><c>Te</c><c>   4</c></rc>
    <rc><c>Te</c><c>   4</c></rc>
   </set>
  </array>
  <array name="atomtypes" >
   <dimension dim="1">type</dimension>
   <field type="int">atomspertype</field>
   <field type="string">element</field>
   <field>mass</field>
   <field>valence</field>
   <field type="string">pseudopotential</field>
   <set>
    <rc><c>   2</c><c>Cr</c><c>     51.99600000</c><c>      6.00000000</c><c> PAW_PBE Cr 06Sep2000                   </c></rc>
    <rc><c>   1</c><c>P </c><c>     30.97400000</c><c>      5.00000000</c><c>  PAW_PBE P 17Jan2003                   </c></rc>
    <rc><c>   1</c><c>Ge</c><c>     72.61000000</c><c>      4.00000000</c><c> PAW_PBE Ge 05Jan2001                   </c></rc>
    <rc><c>   6</c><c>Te</c><c>    127.60000000</c><c>      6.00000000</c><c> PAW_PBE Te 08Apr2002                   </c></rc>
   </set>
  </array>
 </atominfo>
 <structure name="initialpos" >
  <crystal>
   <varray name="basis" >
    <v>       6.90777700      -0.00000000       0.00000000 </v>
    <v>       3.45388800       5.98231000       0.00000000 </v>
    <v>       0.00000000       0.00000000      23.44458800 </v>
   </varray>
   <i name="volume">    968.83501932 </i>
   <varray name="rec_basis" >
    <v>       0.14476437      -0.08357974       0.00000000 </v>
    <v>       0.00000000       0.16715951      -0.00000000 </v>
    <v>      -0.00000000       0.00000000       0.04265377 </v>
   </varray>
  </crystal>
  <varray name="positions" >
   <v>       0.33333300       0.33333300       0.49992500 </v>
   <v>       0.66666700       0.66666700       0.50007500 </v>
   <v>       0.00000000       0.00000000       0.44821600 </v>
   <v>       0.00000000       0.00000000       0.55178400 </v>
   <v>       0.62635700       0.00042000       0.57375200 </v>
   <v>       0.00042000       0.37322400       0.57375200 </v>
   <v>       0.37322400       0.62635700       0.57375200 </v>
   <v>       0.37364300       0.99958000       0.42624800 </v>
   <v>       0.99958000       0.62677600       0.42624800 </v>
   <v>       0.62677600       0.37364300       0.42624800 </v>
  </varray>
  <varray name="selective"  type="logical" >
   <v type="logical" >  F  F  F </v>
   <v type="logical" >  F  F  F </v>
   <v type="logical" >  T  T  T </v>
   <v type="logical" >  F  F  F </v>
   <v type="logical" >  F  F  F </v>
   <v type="logical" >  F  F  F </v>
   <v type="logical" >  F  F  F </v>
   <v type="logical" >  F  F  F </v>
   <v type="logical" >  F  F  F </v>
   <v type="logical" >  F  F  F </v>
  </varray>
  <nose>
   <v>      -3.00000000       0.00000000       0.00010000       0.00010000 </v>
  </nose>
 </structure>
 <calculation>
  <scstep>
   <time name="dav">   22.44   22.96</time>
   <time name="total">   75.30   75.96</time>
   <energy>
    <i name="alphaZ">     13.62040840 </i>
    <i name="ewald">   6221.61188061 </i>
    <i name="hartreedc">  -8151.90115098 </i>
    <i name="XCdc">   -215.52439230 </i>
    <i name="pawpsdc">   1166.33076898 </i>
    <i name="pawaedc">   -861.12977315 </i>
    <i name="eentropy">      0.00000000 </i>
    <i name="bandstr">     29.97143647 </i>
    <i name="atom">   2185.36163785 </i>
    <i name="e_fr_energy">    388.34081589 </i>
    <i name="e_wo_entrp">    388.34081589 </i>
    <i name="e_0_energy">    388.34081589 </i>
   </energy>
  </scstep>
  <scstep>
   <time name="dav">   27.19   27.75</time>
   <time name="total">   27.20   27.76</time>
   <energy>
    <i name="e_fr_energy">      9.74918044 </i>
    <i name="e_wo_entrp">      9.74918044 </i>
    <i name="e_0_energy">      9.74918044 </i>
   </energy>
  </scstep>
  <scstep>
   <time name="dav">   29.90   30.60</time>
   <time name="total">   29.90   30.60</time>
   <energy>
    <i name="e_fr_energy">    -40.65184618 </i>
    <i name="e_wo_entrp">    -40.65184618 </i>
    <i name="e_0_energy">    -40.65184618 </i>
   </energy>
  </scstep>
  <scstep>
   <time name="dav">   29.93   30.02</time>
   <time name="total">   29.93   30.03</time>
   <energy>
    <i name="e_fr_energy">    -43.05466212 </i>
    <i name="e_wo_entrp">    -43.05466212 </i>
    <i name="e_0_energy">    -43.05466212 </i>
   </energy>
  </scstep>
  <scstep>
   <time name="dav">   34.07   34.13</time>
   <time name="total">   36.10   36.16</time>
   <energy>
    <i name="e_fr_energy">    -43.13698482 </i>
    <i name="e_wo_entrp">    -43.13698482 </i>
    <i name="e_0_energy">    -43.13698482 </i>
   </energy>
  </scstep>
  <scstep>
   <time name="dav">   32.46   33.25</time>
   <time name="total">   86.89   87.82</time>
   <energy>
    <i name="e_fr_energy">    -47.39297435 </i>
    <i name="e_wo_entrp">    -47.39297435 </i>
    <i name="e_0_energy">    -47.39297435 </i>
   </energy>
  </scstep>
  <scstep>
   <time name="dav">   28.98   30.17</time>
   <time name="total">   82.87   84.78</time>
   <energy>
    <i name="e_fr_energy">    -41.10443001 </i>
    <i name="e_wo_entrp">    -41.10443001 </i>
    <i name="e_0_energy">    -41.10443001 </i>
   </energy>
  </scstep>
  <scstep>
   <time name="dav">   30.06   30.16</time>
   <time name="total">   84.02   84.35</time>
   <energy>
    <i name="e_fr_energy">    -41.11135253 </i>
    <i name="e_wo_entrp">    -41.11135253 </i>
    <i name="e_0_energy">    -41.11135253 </i>
   </energy>
  </scstep>
  <scstep>
   <time name="dav">   28.39   28.50</time>
   <time name="total">   81.17   81.68</time>
   <energy>
    <i name="e_fr_energy">    -41.50977368 </i>
    <i name="e_wo_entrp">    -41.50977368 </i>
    <i name="e_0_energy">    -41.50977368 </i>
   </energy>
  </scstep>
  <scstep>
   <time name="dav">   28.04   28.13</time>
   <time name="total">   81.18   81.33</time>
   <energy>
    <i name="e_fr_energy">    -42.00368677 </i>
    <i name="e_wo_entrp">    -42.00368677 </i>
    <i name="e_0_energy">    -42.00368677 </i>
   </energy>
  </scstep>
  <scstep>
   <time name="dav">   28.26   28.30</time>
   <time name="total">   81.42   81.56</time>
   <energy>
    <i name="e_fr_energy">    -42.12086558 </i>
    <i name="e_wo_entrp">    -42.12086558 </i>
    <i name="e_0_energy">    -42.12086558 </i>
   </energy>
  </scstep>
  <scstep>
   <time name="dav">   31.86   31.97</time>
   <time name="total">   84.88   85.07</time>
   <energy>
    <i name="e_fr_energy">    -42.30477587 </i>
    <i name="e_wo_entrp">    -42.30477587 </i>
    <i name="e_0_energy">    -42.30477587 </i>
   </energy>
  </scstep>
  <scstep>
   <time name="dav">   28.74   28.84</time>
   <time name="total">   81.82   82.07</time>
   <energy>
    <i name="e_fr_energy">    -42.46285774 </i>
    <i name="e_wo_entrp">    -42.46285774 </i>
    <i name="e_0_energy">    -42.46285774 </i>
   </energy>
  </scstep>
  <scstep>
   <time name="dav">   24.52   24.61</time>
   <time name="total">   77.37   77.74</time>
   <energy>
    <i name="e_fr_energy">    -42.58964989 </i>
    <i name="e_wo_entrp">    -42.58964989 </i>
    <i name="e_0_energy">    -42.58964989 </i>
   </energy>
  </scstep>
  <scstep>
   <time name="dav">   23.87   24.01</time>
   <time name="total">   77.08   77.35</time>
   <energy>
    <i name="e_fr_energy">    -42.52172368 </i>
    <i name="e_wo_entrp">    -42.52172368 </i>
    <i name="e_0_energy">    -42.52172368 </i>
   </energy>
  </scstep>
  <scstep>
   <time name="dav">   22.33   22.60</time>
   <time name="total">   75.27   75.79</time>
   <energy>
    <i name="e_fr_energy">    -42.53095716 </i>
    <i name="e_wo_entrp">    -42.53095716 </i>
    <i name="e_0_energy">    -42.53095716 </i>
   </energy>
  </scstep>
  <scstep>
   <time name="dav">   23.50   23.64</time>
   <time name="total">   76.37   76.80</time>
   <energy>
    <i name="e_fr_energy">    -42.53061801 </i>
    <i name="e_wo_entrp">    -42.53061801 </i>
    <i name="e_0_energy">    -42.53061801 </i>
   </energy>
  </scstep>
  <scstep>
   <time name="dav">   22.80   23.08</time>
   <time name="total">   73.66   74.24</time>
   <energy>
    <i name="alphaZ">     13.62040840 </i>
    <i name="ewald">   6221.61188061 </i>
    <i name="hartreedc">  -8161.60624704 </i>
    <i name="XCdc">   -216.54279554 </i>
    <i name="pawpsdc">   1237.22917283 </i>
    <i name="pawaedc">   -933.19224030 </i>
    <i name="eentropy">      0.00000000 </i>
    <i name="bandstr">   -389.01235670 </i>
    <i name="atom">   2185.36163785 </i>
    <i name="e_fr_energy">    -42.53053989 </i>
    <i name="e_wo_entrp">    -42.53053989 </i>
    <i name="e_0_energy">    -42.53053989 </i>
   </energy>
  </scstep>
  <structure>
   <crystal>
    <varray name="basis" >
     <v>       6.90777700      -0.00000000       0.00000000 </v>
     <v>       3.45388800       5.98231000       0.00000000 </v>
     <v>       0.00000000       0.00000000      23.44458800 </v>
    </varray>
    <i name="volume">    968.83501932 </i>
    <varray name="rec_basis" >
     <v>       0.14476437      -0.08357974       0.00000000 </v>
     <v>       0.00000000       0.16715951      -0.00000000 </v>
     <v>      -0.00000000       0.00000000       0.04265377 </v>
    </varray>
   </crystal>
   <varray name="positions" >
    <v>       0.33333300       0.33333300       0.49992500 </v>
    <v>       0.66666700       0.66666700       0.50007500 </v>
    <v>       0.00000000       0.00000000       0.44821600 </v>
    <v>       0.00000000       0.00000000       0.55178400 </v>
    <v>       0.62635700       0.00042000       0.57375200 </v>
    <v>       0.00042000       0.37322400       0.57375200 </v>
    <v>       0.37322400       0.62635700       0.57375200 </v>
    <v>       0.37364300       0.99958000       0.42624800 </v>
    <v>       0.99958000       0.62677600       0.42624800 </v>
    <v>       0.62677600       0.37364300       0.42624800 </v>
   </varray>
  </structure>
  <varray name="forces" >
   <v>      -0.00000000       0.00000000      -0.09484088 </v>
   <v>       0.00000000       0.00000000      -0.09088485 </v>
   <v>       0.00000000       0.00000000       0.00372527 </v>
   <v>       0.00000000      -0.00000000      -0.56788060 </v>
   <v>      -0.16864866      -0.00765226      -0.05617164 </v>
   <v>       0.07769726       0.14988014      -0.05617164 </v>
   <v>       0.09095139      -0.14222788      -0.05617164 </v>
   <v>      -0.08019181       0.00691587       0.30613200 </v>
   <v>       0.04608522       0.06599021       0.30613200 </v>
   <v>       0.03410659      -0.07290607       0.30613200 </v>
  </varray>
  <varray name="stress" >
   <v>      -3.36306186      -0.00000010       0.00000000 </v>
   <v>       0.00000066      -3.36306145      -0.00000000 </v>
   <v>       0.00000000       0.00000000      -4.16532190 </v>
  </varray>
  <energy>
   <i name="e_fr_energy">    -42.53053989 </i>
   <i name="e_wo_entrp">    -42.53053989 </i>
   <i name="e_0_energy">      0.00000000 </i>
  </energy>
  <time name="totalsc"> 1391.66 1400.69</time>
 </calculation>
 <calculation>
  <scstep>
   <time name="dav">   28.58   28.78</time>
   <time name="total">   81.52   81.96</time>
   <energy>
    <i name="alphaZ">     14.06252469 </i>
    <i name="ewald">   6261.35823281 </i>
    <i name="hartreedc">  -8223.79694991 </i>
    <i name="XCdc">   -215.79135600 </i>
    <i name="pawpsdc">   1237.32834612 </i>
    <i name="pawaedc">   -933.29623281 </i>
    <i name="eentropy">      0.00000000 </i>
    <i name="bandstr">   -367.95636801 </i>
    <i name="atom">   2185.36163785 </i>
    <i name="e_fr_energy">    -42.73016526 </i>
    <i name="e_wo_entrp">    -42.73016526 </i>
    <i name="e_0_energy">    -42.73016526 </i>
   </energy>
  </scstep>
  <scstep>
   <time name="dav">   30.80   30.90</time>
   <time name="total">   83.73   83.97</time>
   <energy>
    <i name="e_fr_energy">    -42.72047384 </i>
    <i name="e_wo_entrp">    -42.72047384 </i>
    <i name="e_0_energy">    -42.72047384 </i>
   </energy>
  </scstep>
  <scstep>
   <time name="dav">   29.83   30.07</time>
   <time name="total">   82.60   83.17</time>
   <energy>
    <i name="e_fr_energy">    -42.59875553 </i>
    <i name="e_wo_entrp">    -42.59875553 </i>
    <i name="e_0_energy">    -42.59875553 </i>
   </energy>
  </scstep>
  <scstep>
   <time name="dav">   29.37   29.56</time>
   <time name="total">   82.32   82.68</time>
   <energy>
    <i name="e_fr_energy">    -42.55606095 </i>
    <i name="e_wo_entrp">    -42.55606095 </i>
    <i name="e_0_energy">    -42.55606095 </i>
   </energy>
  </scstep>
  <scstep>
   <time name="dav">   26.94   27.08</time>
   <time name="total">   79.81   80.40</time>
   <energy>
    <i name="e_fr_energy">    -42.55386574 </i>
    <i name="e_wo_entrp">    -42.55386574 </i>
    <i name="e_0_energy">    -42.55386574 </i>
   </energy>
  </scstep>
  <scstep>
   <time name="dav">   28.40   28.70</time>
   <time name="total">   81.33   82.01</time>
   <energy>
    <i name="e_fr_energy">    -42.55432674 </i>
    <i name="e_wo_entrp">    -42.55432674 </i>
    <i name="e_0_energy">    -42.55432674 </i>
   </energy>
  </scstep>
  <scstep>
   <time name="dav">   25.72   25.83</time>
   <time name="total">   78.73   78.99</time>
   <energy>
    <i name="e_fr_energy">    -42.55516850 </i>
    <i name="e_wo_entrp">    -42.55516850 </i>
    <i name="e_0_energy">    -42.55516850 </i>
   </energy>
  </scstep>
  <scstep>
   <time name="dav">   23.53   23.64</time>
   <time name="total">   76.60   76.94</time>
   <energy>
    <i name="e_fr_energy">    -42.55579988 </i>
    <i name="e_wo_entrp">    -42.55579988 </i>
    <i name="e_0_energy">    -42.55579988 </i>
   </energy>
  </scstep>
  <scstep>
   <time name="dav">   23.47   23.51</time>
   <time name="total">   76.70   76.78</time>
   <energy>
    <i name="e_fr_energy">    -42.55678260 </i>
    <i name="e_wo_entrp">    -42.55678260 </i>
    <i name="e_0_energy">    -42.55678260 </i>
   </energy>
  </scstep>
  <scstep>
   <time name="dav">   23.34   23.48</time>
   <time name="total">   76.49   76.70</time>
   <energy>
    <i name="e_fr_energy">    -42.55847348 </i>
    <i name="e_wo_entrp">    -42.55847348 </i>
    <i name="e_0_energy">    -42.55847348 </i>
   </energy>
  </scstep>
  <scstep>
   <time name="dav">   24.12   24.22</time>
   <time name="total">   77.18   77.50</time>
   <energy>
    <i name="e_fr_energy">    -42.55945765 </i>
    <i name="e_wo_entrp">    -42.55945765 </i>
    <i name="e_0_energy">    -42.55945765 </i>
   </energy>
  </scstep>
  <scstep>
   <time name="dav">   22.36   22.38</time>
   <time name="total">   75.40   75.79</time>
   <energy>
    <i name="e_fr_energy">    -42.55992856 </i>
    <i name="e_wo_entrp">    -42.55992856 </i>
    <i name="e_0_energy">    -42.55992856 </i>
   </energy>
  </scstep>
  <scstep>
   <time name="dav">   21.41   21.60</time>
   <time name="total">   74.50   74.95</time>
   <energy>
    <i name="e_fr_energy">    -42.56008619 </i>
    <i name="e_wo_entrp">    -42.56008619 </i>
    <i name="e_0_energy">    -42.56008619 </i>
   </energy>
  </scstep>
  <scstep>
   <time name="dav">   26.05   26.11</time>
   <time name="total">   76.96   77.43</time>
   <energy>
    <i name="alphaZ">     14.06252469 </i>
    <i name="ewald">   6261.35823281 </i>
    <i name="hartreedc">  -8208.88967866 </i>
    <i name="XCdc">   -216.10363796 </i>
    <i name="pawpsdc">   1249.52470587 </i>
    <i name="pawaedc">   -945.66815954 </i>
    <i name="eentropy">      0.00000000 </i>
    <i name="bandstr">   -382.20577922 </i>
    <i name="atom">   2185.36163785 </i>
    <i name="e_fr_energy">    -42.56015416 </i>
    <i name="e_wo_entrp">    -42.56015416 </i>
    <i name="e_0_energy">    -42.56015416 </i>
   </energy>
  </scstep>
  <structure>
   <crystal>
    <varray name="basis" >
     <v>       6.84000605      -0.00000000       0.00000000 </v>
     <v>       3.42000254       5.92361864      -0.00000000 </v>
     <v>       0.00000000       0.00000000      23.15970823 </v>
    </varray>
    <i name="volume">    938.37550048 </i>
    <varray name="rec_basis" >
     <v>       0.14619870      -0.08440785       0.00000000 </v>
     <v>       0.00000000       0.16881573      -0.00000000 </v>
     <v>       0.00000000       0.00000000       0.04317844 </v>
    </varray>
   </crystal>
   <varray name="positions" >
    <v>       0.33333300       0.33333300       0.49992500 </v>
    <v>       0.66666700       0.66666700       0.50007500 </v>
    <v>      -0.00000000       0.00000000       0.44822367 </v>
    <v>       0.00000000       0.00000000       0.55178400 </v>
    <v>       0.62635700       0.00042000       0.57375200 </v>
    <v>       0.00042000       0.37322400       0.57375200 </v>
    <v>       0.37322400       0.62635700       0.57375200 </v>
    <v>       0.37364300       0.99958000       0.42624800 </v>
    <v>       0.99958000       0.62677600       0.42624800 </v>
    <v>       0.62677600       0.37364300       0.42624800 </v>
   </varray>
  </structure>
  <varray name="forces" >
   <v>       0.00000000       0.00000000      -0.10157086 </v>
   <v>       0.00000000       0.00000000      -0.09303415 </v>
   <v>       0.00000000       0.00000000      -0.11753517 </v>
   <v>       0.00000000       0.00000000      -0.47135601 </v>
   <v>      -0.25275198      -0.00860190       0.14424153 </v>
   <v>       0.11892651       0.22319057       0.14424153 </v>
   <v>       0.13382547      -0.21458868       0.14424153 </v>
   <v>      -0.05004114       0.00821466       0.11692387 </v>
   <v>       0.03213467       0.03922956       0.11692387 </v>
   <v>       0.01790647      -0.04744423       0.11692387 </v>
  </varray>
  <varray name="stress" >
   <v>       1.64325017      -0.00000033      -0.00000000 </v>
   <v>       0.00000006       1.64324998      -0.00000000 </v>
   <v>      -0.00000000      -0.00000000      -0.64949992 </v>
  </varray>
  <energy>
   <i name="e_fr_energy">    -42.56015416 </i>
   <i name="e_wo_entrp">    -42.56015416 </i>
   <i name="e_0_energy">      0.00000000 </i>
  </energy>
  <time name="totalsc"> 1237.09 1242.95</time>
 </calculation>
 <calculation>
  <scstep>
   <time name="dav">   27.10   27.42</time>
   <time name="total">   79.95   80.47</time>
   <energy>
    <i name="alphaZ">     13.99294563 </i>
    <i name="ewald">   6255.19175383 </i>
    <i name="hartreedc">  -8199.10016666 </i>
    <i name="XCdc">   -216.22067907 </i>
    <i name="pawpsdc">   1249.55821367 </i>
    <i name="pawaedc">   -945.70249125 </i>
    <i name="eentropy">      0.00000000 </i>
    <i name="bandstr">   -385.64701238 </i>
    <i name="atom">   2185.36163785 </i>
    <i name="e_fr_energy">    -42.56579838 </i>
    <i name="e_wo_entrp">    -42.56579838 </i>
    <i name="e_0_energy">    -42.56579838 </i>
   </energy>
  </scstep>
  <scstep>
   <time name="dav">   31.72   32.11</time>
   <time name="total">   84.42   85.17</time>
   <energy>
    <i name="e_fr_energy">    -42.56550500 </i>
    <i name="e_wo_entrp">    -42.56550500 </i>
    <i name="e_0_energy">    -42.56550500 </i>
   </energy>
  </scstep>
  <scstep>
   <time name="dav">   29.25   29.41</time>
   <time name="total">   81.92   82.48</time>
   <energy>
    <i name="e_fr_energy">    -42.56262031 </i>
    <i name="e_wo_entrp">    -42.56262031 </i>
    <i name="e_0_energy">    -42.56262031 </i>
   </energy>
  </scstep>
  <scstep>
   <time name="dav">   29.83   29.90</time>
   <time name="total">   82.98   83.13</time>
   <energy>
    <i name="e_fr_energy">    -42.56156938 </i>
    <i name="e_wo_entrp">    -42.56156938 </i>
    <i name="e_0_energy">    -42.56156938 </i>
   </energy>
  </scstep>
  <scstep>
   <time name="dav">   20.46   20.50</time>
   <time name="total">   71.44   71.56</time>
   <energy>
    <i name="alphaZ">     13.99294563 </i>
    <i name="ewald">   6255.19175383 </i>
    <i name="hartreedc">  -8200.88978743 </i>
    <i name="XCdc">   -216.17809733 </i>
    <i name="pawpsdc">   1248.24556099 </i>
    <i name="pawaedc">   -944.38618848 </i>
    <i name="eentropy">      0.00000000 </i>
    <i name="bandstr">   -383.89931997 </i>
    <i name="atom">   2185.36163785 </i>
    <i name="e_fr_energy">    -42.56149490 </i>
    <i name="e_wo_entrp">    -42.56149490 </i>
    <i name="e_0_energy">    -42.56149490 </i>
   </energy>
  </scstep>
  <structure>
   <crystal>
    <varray name="basis" >
     <v>       6.85048137      -0.00000000       0.00000000 </v>
     <v>       3.42524020       5.93269054      -0.00000000 </v>
     <v>       0.00000000       0.00000000      23.20374195 </v>
    </varray>
    <i name="volume">    943.04151438 </i>
    <varray name="rec_basis" >
     <v>       0.14597514      -0.08427878       0.00000000 </v>
     <v>       0.00000000       0.16855759      -0.00000000 </v>
     <v>       0.00000000       0.00000000       0.04309650 </v>
    </varray>
   </crystal>
   <varray name="positions" >
    <v>       0.33333300       0.33333300       0.49992500 </v>
    <v>       0.66666700       0.66666700       0.50007500 </v>
    <v>      -0.00000000       0.00000000       0.44822247 </v>
    <v>       0.00000000       0.00000000       0.55178400 </v>
    <v>       0.62635700       0.00042000       0.57375200 </v>
    <v>       0.00042000       0.37322400       0.57375200 </v>
    <v>       0.37322400       0.62635700       0.57375200 </v>
    <v>       0.37364300       0.99958000       0.42624800 </v>
    <v>       0.99958000       0.62677600       0.42624800 </v>
    <v>       0.62677600       0.37364300       0.42624800 </v>
   </varray>
  </structure>
  <varray name="forces" >
   <v>       0.00000000      -0.00000000      -0.10123740 </v>
   <v>       0.00000000      -0.00000000      -0.09222448 </v>
   <v>       0.00000000      -0.00000000      -0.09710117 </v>
   <v>       0.00000000      -0.00000000      -0.48739641 </v>
   <v>      -0.23659028      -0.00789052       0.11221413 </v>
   <v>       0.11146173       0.20883844       0.11221413 </v>
   <v>       0.12512855      -0.20094792       0.11221413 </v>
   <v>      -0.05692584       0.00693634       0.14710569 </v>
   <v>       0.03446996       0.04583105       0.14710569 </v>
   <v>       0.02245588      -0.05276739       0.14710569 </v>
  </varray>
  <varray name="stress" >
   <v>       0.89513936      -0.00000077       0.00000000 </v>
   <v>       0.00000063       0.89513925      -0.00000000 </v>
   <v>      -0.00000000      -0.00000000      -0.93990458 </v>
  </varray>
  <energy>
   <i name="e_fr_energy">    -42.56149490 </i>
   <i name="e_wo_entrp">    -42.56149490 </i>
   <i name="e_0_energy">      0.00000000 </i>
  </energy>
  <time name="totalsc">  533.67  536.27</time>
 </calculation>
 <calculation>
  <scstep>
   <time name="dav">   26.75   26.86</time>
   <time name="total">   79.85   80.30</time>
   <energy>
    <i name="alphaZ">     14.01071815 </i>
    <i name="ewald">   6196.81944227 </i>
    <i name="hartreedc">  -8147.02338870 </i>
    <i name="XCdc">   -216.15009995 </i>
    <i name="pawpsdc">   1247.95530631 </i>
    <i name="pawaedc">   -944.08466647 </i>
    <i name="eentropy">      0.00000000 </i>
    <i name="bandstr">   -379.45775739 </i>
    <i name="atom">   2185.36163785 </i>
    <i name="e_fr_energy">    -42.56880793 </i>
    <i name="e_wo_entrp">    -42.56880793 </i>
    <i name="e_0_energy">    -42.56880793 </i>
   </energy>
  </scstep>
  <scstep>
   <time name="dav">   28.65   28.93</time>
   <time name="total">   81.80   82.25</time>
   <energy>
    <i name="e_fr_energy">    -42.56743413 </i>
    <i name="e_wo_entrp">    -42.56743413 </i>
    <i name="e_0_energy">    -42.56743413 </i>
   </energy>
  </scstep>
  <scstep>
   <time name="dav">   31.16   31.24</time>
   <time name="total">   84.12   84.34</time>
   <energy>
    <i name="e_fr_energy">    -42.56655748 </i>
    <i name="e_wo_entrp">    -42.56655748 </i>
    <i name="e_0_energy">    -42.56655748 </i>
   </energy>
  </scstep>
  <scstep>
   <time name="dav">   29.82   29.89</time>
   <time name="total">   82.74   82.99</time>
   <energy>
    <i name="e_fr_energy">    -42.56498232 </i>
    <i name="e_wo_entrp">    -42.56498232 </i>
    <i name="e_0_energy">    -42.56498232 </i>
   </energy>
  </scstep>
  <scstep>
   <time name="dav">   27.65   27.87</time>
   <time name="total">   80.74   81.04</time>
   <energy>
    <i name="e_fr_energy">    -42.56469769 </i>
    <i name="e_wo_entrp">    -42.56469769 </i>
    <i name="e_0_energy">    -42.56469769 </i>
   </energy>
  </scstep>
  <scstep>
   <time name="dav">   23.14   23.16</time>
   <time name="total">   74.27   74.42</time>
   <energy>
    <i name="alphaZ">     14.01071815 </i>
    <i name="ewald">   6196.81944227 </i>
    <i name="hartreedc">  -8145.09511347 </i>
    <i name="XCdc">   -216.16820947 </i>
    <i name="pawpsdc">   1247.57427729 </i>
    <i name="pawaedc">   -943.68169689 </i>
    <i name="eentropy">      0.00000000 </i>
    <i name="bandstr">   -381.38568404 </i>
    <i name="atom">   2185.36163785 </i>
    <i name="e_fr_energy">    -42.56462831 </i>
    <i name="e_wo_entrp">    -42.56462831 </i>
    <i name="e_0_energy">    -42.56462831 </i>
   </energy>
  </scstep>
  <structure>
   <crystal>
    <varray name="basis" >
     <v>       6.85974136      -0.00000002       0.00000000 </v>
     <v>       3.42987021       5.94070992      -0.00000000 </v>
     <v>      -0.00000000      -0.00000000      23.11178418 </v>
    </varray>
    <i name="volume">    941.84527164 </i>
    <varray name="rec_basis" >
     <v>       0.14577809      -0.08416501       0.00000000 </v>
     <v>       0.00000000       0.16833005       0.00000000 </v>
     <v>       0.00000000       0.00000000       0.04326797 </v>
    </varray>
   </crystal>
   <varray name="positions" >
    <v>       0.33333300       0.33333300       0.49992500 </v>
    <v>       0.66666700       0.66666700       0.50007500 </v>
    <v>       0.00000000      -0.00000000       0.44802770 </v>
    <v>       0.00000000       0.00000000       0.55178400 </v>
    <v>       0.62635700       0.00042000       0.57375200 </v>
    <v>       0.00042000       0.37322400       0.57375200 </v>
    <v>       0.37322400       0.62635700       0.57375200 </v>
    <v>       0.37364300       0.99958000       0.42624800 </v>
    <v>       0.99958000       0.62677600       0.42624800 </v>
    <v>       0.62677600       0.37364300       0.42624800 </v>
   </varray>
  </structure>
  <varray name="forces" >
   <v>       0.00000000      -0.00000000      -0.10346182 </v>
   <v>       0.00000000      -0.00000000      -0.09495058 </v>
   <v>       0.00000000       0.00000000      -0.13184408 </v>
   <v>       0.00000000       0.00000000      -0.44777791 </v>
   <v>      -0.21856160      -0.00657823       0.13444492 </v>
   <v>       0.10358387       0.19256900       0.13444492 </v>
   <v>       0.11497773      -0.18599077       0.13444492 </v>
   <v>      -0.06114329       0.00570576       0.12489988 </v>
   <v>       0.03551297       0.05009876       0.12489988 </v>
   <v>       0.02563031      -0.05580452       0.12489988 </v>
  </varray>
  <varray name="stress" >
   <v>       0.50994798      -0.00000075       0.00000000 </v>
   <v>       0.00000067       0.50994792       0.00000000 </v>
   <v>      -0.00000000       0.00000000      -1.01760314 </v>
  </varray>
  <energy>
   <i name="e_fr_energy">    -42.56462831 </i>
   <i name="e_wo_entrp">    -42.56462831 </i>
   <i name="e_0_energy">      0.00000000 </i>
  </energy>
  <time name="totalsc">  616.60  618.80</time>
 </calculation>
 <calculation>
  <scstep>
   <time name="dav">   26.08   26.11</time>
   <time name="total">   79.29   79.41</time>
   <energy>
    <i name="alphaZ">     14.06582140 </i>
    <i name="ewald">   6023.34720933 </i>
    <i name="hartreedc">  -7984.76415973 </i>
    <i name="XCdc">   -216.08024464 </i>
    <i name="pawpsdc">   1247.70541294 </i>
    <i name="pawaedc">   -943.81668383 </i>
    <i name="eentropy">      0.00000000 </i>
    <i name="bandstr">   -368.42332452 </i>
    <i name="atom">   2185.36163785 </i>
    <i name="e_fr_energy">    -42.60433119 </i>
    <i name="e_wo_entrp">    -42.60433119 </i>
    <i name="e_0_energy">    -42.60433119 </i>
   </energy>
  </scstep>
  <scstep>
   <time name="dav">   28.57   28.75</time>
   <time name="total">   81.36   82.00</time>
   <energy>
    <i name="e_fr_energy">    -42.58628865 </i>
    <i name="e_wo_entrp">    -42.58628865 </i>
    <i name="e_0_energy">    -42.58628865 </i>
   </energy>
  </scstep>
  <scstep>
   <time name="dav">   31.35   31.38</time>
   <time name="total">   84.40   84.53</time>
   <energy>
    <i name="e_fr_energy">    -42.57636403 </i>
    <i name="e_wo_entrp">    -42.57636403 </i>
    <i name="e_0_energy">    -42.57636403 </i>
   </energy>
  </scstep>
  <scstep>
   <time name="dav">   31.60   31.73</time>
   <time name="total">   84.75   84.97</time>
   <energy>
    <i name="e_fr_energy">    -42.56219919 </i>
    <i name="e_wo_entrp">    -42.56219919 </i>
    <i name="e_0_energy">    -42.56219919 </i>
   </energy>
  </scstep>
  <scstep>
   <time name="dav">   23.18   23.21</time>
   <time name="total">   76.18   76.27</time>
   <energy>
    <i name="e_fr_energy">    -42.56191634 </i>
    <i name="e_wo_entrp">    -42.56191634 </i>
    <i name="e_0_energy">    -42.56191634 </i>
   </energy>
  </scstep>
  <scstep>
   <time name="dav">   22.67   22.84</time>
   <time name="total">   75.97   76.31</time>
   <energy>
    <i name="e_fr_energy">    -42.56245675 </i>
    <i name="e_wo_entrp">    -42.56245675 </i>
    <i name="e_0_energy">    -42.56245675 </i>
   </energy>
  </scstep>
  <scstep>
   <time name="dav">   23.49   23.52</time>
   <time name="total">   76.55   76.71</time>
   <energy>
    <i name="e_fr_energy">    -42.56374183 </i>
    <i name="e_wo_entrp">    -42.56374183 </i>
    <i name="e_0_energy">    -42.56374183 </i>
   </energy>
  </scstep>
  <scstep>
   <time name="dav">   22.88   23.09</time>
   <time name="total">   75.67   76.29</time>
   <energy>
    <i name="e_fr_energy">    -42.56428356 </i>
    <i name="e_wo_entrp">    -42.56428356 </i>
    <i name="e_0_energy">    -42.56428356 </i>
   </energy>
  </scstep>
  <scstep>
   <time name="dav">   22.74   22.76</time>
   <time name="total">   75.54   75.89</time>
   <energy>
    <i name="e_fr_energy">    -42.56502017 </i>
    <i name="e_wo_entrp">    -42.56502017 </i>
    <i name="e_0_energy">    -42.56502017 </i>
   </energy>
  </scstep>
  <scstep>
   <time name="dav">   23.06   23.16</time>
   <time name="total">   76.05   76.23</time>
   <energy>
    <i name="e_fr_energy">    -42.56613763 </i>
    <i name="e_wo_entrp">    -42.56613763 </i>
    <i name="e_0_energy">    -42.56613763 </i>
   </energy>
  </scstep>
  <scstep>
   <time name="dav">   25.03   25.15</time>
   <time name="total">   78.26   78.41</time>
   <energy>
    <i name="e_fr_energy">    -42.56630936 </i>
    <i name="e_wo_entrp">    -42.56630936 </i>
    <i name="e_0_energy">    -42.56630936 </i>
   </energy>
  </scstep>
  <scstep>
   <time name="dav">   21.96   22.06</time>
   <time name="total">   74.86   75.14</time>
   <energy>
    <i name="e_fr_energy">    -42.56608288 </i>
    <i name="e_wo_entrp">    -42.56608288 </i>
    <i name="e_0_energy">    -42.56608288 </i>
   </energy>
  </scstep>
  <scstep>
   <time name="dav">   22.17   22.34</time>
   <time name="total">   75.13   75.51</time>
   <energy>
    <i name="e_fr_energy">    -42.56570119 </i>
    <i name="e_wo_entrp">    -42.56570119 </i>
    <i name="e_0_energy">    -42.56570119 </i>
   </energy>
  </scstep>
  <scstep>
   <time name="dav">   20.17   20.36</time>
   <time name="total">   71.20   71.50</time>
   <energy>
    <i name="alphaZ">     14.06582140 </i>
    <i name="ewald">   6023.34720933 </i>
    <i name="hartreedc">  -7970.81962116 </i>
    <i name="XCdc">   -216.21594399 </i>
    <i name="pawpsdc">   1248.95549558 </i>
    <i name="pawaedc">   -945.07800765 </i>
    <i name="eentropy">      0.00000000 </i>
    <i name="bandstr">   -382.18220333 </i>
    <i name="atom">   2185.36163785 </i>
    <i name="e_fr_energy">    -42.56561197 </i>
    <i name="e_wo_entrp">    -42.56561197 </i>
    <i name="e_0_energy">    -42.56561197 </i>
   </energy>
  </scstep>
  <structure>
   <crystal>
    <varray name="basis" >
     <v>       6.88752134      -0.00000006       0.00000000 </v>
     <v>       3.44376023       5.96476806      -0.00000000 </v>
     <v>      -0.00000000      -0.00000000      22.83591088 </v>
    </varray>
    <i name="volume">    938.15556638 </i>
    <varray name="rec_basis" >
     <v>       0.14519011      -0.08382555       0.00000000 </v>
     <v>       0.00000000       0.16765111       0.00000000 </v>
     <v>       0.00000000       0.00000000       0.04379068 </v>
    </varray>
   </crystal>
   <varray name="positions" >
    <v>       0.33333300       0.33333300       0.49992500 </v>
    <v>       0.66666700       0.66666700       0.50007500 </v>
    <v>       0.00000000      -0.00000000       0.44744109 </v>
    <v>       0.00000000       0.00000000       0.55178400 </v>
    <v>       0.62635700       0.00042000       0.57375200 </v>
    <v>       0.00042000       0.37322400       0.57375200 </v>
    <v>       0.37322400       0.62635700       0.57375200 </v>
    <v>       0.37364300       0.99958000       0.42624800 </v>
    <v>       0.99958000       0.62677600       0.42624800 </v>
    <v>       0.62677600       0.37364300       0.42624800 </v>
   </varray>
  </structure>
  <varray name="forces" >
   <v>       0.00000000       0.00000000      -0.11466122 </v>
   <v>       0.00000000       0.00000000      -0.10382681 </v>
   <v>       0.00000000       0.00000000      -0.24318535 </v>
   <v>       0.00000000       0.00000000      -0.31408240 </v>
   <v>      -0.16337633      -0.00824009       0.19931589 </v>
   <v>       0.07455203       0.14560809       0.19931589 </v>
   <v>       0.08882430      -0.13736800       0.19931589 </v>
   <v>      -0.07551055       0.00777708       0.05926937 </v>
   <v>       0.04449042       0.06150551       0.05926937 </v>
   <v>       0.03102013      -0.06928259       0.05926937 </v>
  </varray>
  <varray name="stress" >
   <v>      -0.31908578      -0.00000008       0.00000000 </v>
   <v>       0.00000013      -0.31908574      -0.00000000 </v>
   <v>       0.00000000       0.00000000       0.96602517 </v>
  </varray>
  <energy>
   <i name="e_fr_energy">    -42.56561197 </i>
   <i name="e_wo_entrp">    -42.56561197 </i>
   <i name="e_0_energy">      0.00000000 </i>
  </energy>
  <time name="totalsc"> 1218.23 1222.72</time>
 </calculation>
 <calculation>
  <scstep>
   <time name="dav">   24.41   24.46</time>
   <time name="total">   77.46   77.59</time>
   <energy>
    <i name="alphaZ">     14.04879736 </i>
    <i name="ewald">   6075.78994840 </i>
    <i name="hartreedc">  -8018.55125453 </i>
    <i name="XCdc">   -216.24498489 </i>
    <i name="pawpsdc">   1248.97955643 </i>
    <i name="pawaedc">   -945.10124687 </i>
    <i name="eentropy">      0.00000000 </i>
    <i name="bandstr">   -386.85269914 </i>
    <i name="atom">   2185.36163785 </i>
    <i name="e_fr_energy">    -42.57024538 </i>
    <i name="e_wo_entrp">    -42.57024538 </i>
    <i name="e_0_energy">    -42.57024538 </i>
   </energy>
  </scstep>
  <scstep>
   <time name="dav">   28.36   28.73</time>
   <time name="total">   81.49   82.18</time>
   <energy>
    <i name="e_fr_energy">    -42.56895120 </i>
    <i name="e_wo_entrp">    -42.56895120 </i>
    <i name="e_0_energy">    -42.56895120 </i>
   </energy>
  </scstep>
  <scstep>
   <time name="dav">   30.47   30.69</time>
   <time name="total">   83.02   83.74</time>
   <energy>
    <i name="e_fr_energy">    -42.56800903 </i>
    <i name="e_wo_entrp">    -42.56800903 </i>
    <i name="e_0_energy">    -42.56800903 </i>
   </energy>
  </scstep>
  <scstep>
   <time name="dav">   30.12   30.33</time>
   <time name="total">   82.99   83.56</time>
   <energy>
    <i name="e_fr_energy">    -42.56695326 </i>
    <i name="e_wo_entrp">    -42.56695326 </i>
    <i name="e_0_energy">    -42.56695326 </i>
   </energy>
  </scstep>
  <scstep>
   <time name="dav">   21.79   21.96</time>
   <time name="total">   74.48   75.11</time>
   <energy>
    <i name="e_fr_energy">    -42.56683841 </i>
    <i name="e_wo_entrp">    -42.56683841 </i>
    <i name="e_0_energy">    -42.56683841 </i>
   </energy>
  </scstep>
  <scstep>
   <time name="dav">   18.95   19.10</time>
   <time name="total">   69.99   70.30</time>
   <energy>
    <i name="alphaZ">     14.04879736 </i>
    <i name="ewald">   6075.78994840 </i>
    <i name="hartreedc">  -8020.53909098 </i>
    <i name="XCdc">   -216.22573582 </i>
    <i name="pawpsdc">   1248.93548555 </i>
    <i name="pawaedc">   -945.06160632 </i>
    <i name="eentropy">      0.00000000 </i>
    <i name="bandstr">   -384.87624310 </i>
    <i name="atom">   2185.36163785 </i>
    <i name="e_fr_energy">    -42.56680706 </i>
    <i name="e_wo_entrp">    -42.56680706 </i>
    <i name="e_0_energy">    -42.56680706 </i>
   </energy>
  </scstep>
  <structure>
   <crystal>
    <varray name="basis" >
     <v>       6.87908293      -0.00000005       0.00000000 </v>
     <v>       3.43954101       5.95746018      -0.00000000 </v>
     <v>      -0.00000000      -0.00000000      22.91970983 </v>
    </varray>
    <i name="volume">    939.29240375 </i>
    <varray name="rec_basis" >
     <v>       0.14536821      -0.08392837       0.00000000 </v>
     <v>       0.00000000       0.16785677       0.00000000 </v>
     <v>       0.00000000       0.00000000       0.04363057 </v>
    </varray>
   </crystal>
   <varray name="positions" >
    <v>       0.33333300       0.33333300       0.49992500 </v>
    <v>       0.66666700       0.66666700       0.50007500 </v>
    <v>       0.00000000      -0.00000000       0.44762143 </v>
    <v>       0.00000000       0.00000000       0.55178400 </v>
    <v>       0.62635700       0.00042000       0.57375200 </v>
    <v>       0.00042000       0.37322400       0.57375200 </v>
    <v>       0.37322400       0.62635700       0.57375200 </v>
    <v>       0.37364300       0.99958000       0.42624800 </v>
    <v>       0.99958000       0.62677600       0.42624800 </v>
    <v>       0.62677600       0.37364300       0.42624800 </v>
   </varray>
  </structure>
  <varray name="forces" >
   <v>       0.00000000       0.00000000      -0.11017730 </v>
   <v>       0.00000000       0.00000000      -0.10128810 </v>
   <v>       0.00000000       0.00000000      -0.20883113 </v>
   <v>       0.00000000       0.00000000      -0.35954425 </v>
   <v>      -0.17994952      -0.00723981       0.18124337 </v>
   <v>       0.08370489       0.15946075       0.18124337 </v>
   <v>       0.09624463      -0.15222094       0.18124337 </v>
   <v>      -0.07116792       0.00887659       0.07870356 </v>
   <v>       0.04327131       0.05719493       0.07870356 </v>
   <v>       0.02789661      -0.06607152       0.07870356 </v>
  </varray>
  <varray name="stress" >
   <v>      -0.03290503      -0.00000067       0.00000000 </v>
   <v>       0.00000067      -0.03290502      -0.00000000 </v>
   <v>       0.00000000       0.00000000       0.90680861 </v>
  </varray>
  <energy>
   <i name="e_fr_energy">    -42.56680706 </i>
   <i name="e_wo_entrp">    -42.56680706 </i>
   <i name="e_0_energy">      0.00000000 </i>
  </energy>
  <time name="totalsc">  602.55  606.45</time>
 </calculation>
 <calculation>
  <scstep>
   <time name="dav">   26.58   26.79</time>
   <time name="total">   79.58   79.94</time>
   <energy>
    <i name="alphaZ">     14.00304831 </i>
    <i name="ewald">   6106.87691576 </i>
    <i name="hartreedc">  -8047.22785571 </i>
    <i name="XCdc">   -216.30909664 </i>
    <i name="pawpsdc">   1248.84318825 </i>
    <i name="pawaedc">   -944.96695236 </i>
    <i name="eentropy">      0.00000000 </i>
    <i name="bandstr">   -389.15308184 </i>
    <i name="atom">   2185.36163785 </i>
    <i name="e_fr_energy">    -42.57219638 </i>
    <i name="e_wo_entrp">    -42.57219638 </i>
    <i name="e_0_energy">    -42.57219638 </i>
   </energy>
  </scstep>
  <scstep>
   <time name="dav">   25.94   26.06</time>
   <time name="total">   78.86   79.19</time>
   <energy>
    <i name="e_fr_energy">    -42.57227885 </i>
    <i name="e_wo_entrp">    -42.57227885 </i>
    <i name="e_0_energy">    -42.57227885 </i>
   </energy>
  </scstep>
  <scstep>
   <time name="dav">   28.85   29.02</time>
   <time name="total">   81.61   82.05</time>
   <energy>
    <i name="e_fr_energy">    -42.57025296 </i>
    <i name="e_wo_entrp">    -42.57025296 </i>
    <i name="e_0_energy">    -42.57025296 </i>
   </energy>
  </scstep>
  <scstep>
   <time name="dav">   29.48   29.63</time>
   <time name="total">   82.50   82.77</time>
   <energy>
    <i name="e_fr_energy">    -42.56901029 </i>
    <i name="e_wo_entrp">    -42.56901029 </i>
    <i name="e_0_energy">    -42.56901029 </i>
   </energy>
  </scstep>
  <scstep>
   <time name="dav">   27.41   27.69</time>
   <time name="total">   80.21   80.74</time>
   <energy>
    <i name="e_fr_energy">    -42.56887569 </i>
    <i name="e_wo_entrp">    -42.56887569 </i>
    <i name="e_0_energy">    -42.56887569 </i>
   </energy>
  </scstep>
  <scstep>
   <time name="dav">   23.48   23.55</time>
   <time name="total">   74.17   74.80</time>
   <energy>
    <i name="alphaZ">     14.00304831 </i>
    <i name="ewald">   6106.87691576 </i>
    <i name="hartreedc">  -8049.90030667 </i>
    <i name="XCdc">   -216.26834112 </i>
    <i name="pawpsdc">   1247.89145769 </i>
    <i name="pawaedc">   -944.01053923 </i>
    <i name="eentropy">      0.00000000 </i>
    <i name="bandstr">   -386.52269394 </i>
    <i name="atom">   2185.36163785 </i>
    <i name="e_fr_energy">    -42.56882135 </i>
    <i name="e_wo_entrp">    -42.56882135 </i>
    <i name="e_0_energy">    -42.56882135 </i>
   </energy>
  </scstep>
  <structure>
   <crystal>
    <varray name="basis" >
     <v>       6.87820335      -0.00000007       0.00000000 </v>
     <v>       3.43910124       5.95669844      -0.00000000 </v>
     <v>      -0.00000000      -0.00000000      23.00047174 </v>
    </varray>
    <i name="volume">    942.36114516 </i>
    <varray name="rec_basis" >
     <v>       0.14538680      -0.08393910       0.00000000 </v>
     <v>       0.00000000       0.16787823       0.00000000 </v>
     <v>      -0.00000000       0.00000000       0.04347737 </v>
    </varray>
   </crystal>
   <varray name="positions" >
    <v>       0.33333300       0.33333300       0.49992500 </v>
    <v>       0.66666700       0.66666700       0.50007500 </v>
    <v>       0.00000000      -0.00000000       0.44701751 </v>
    <v>       0.00000000       0.00000000       0.55178400 </v>
    <v>       0.62635700       0.00042000       0.57375200 </v>
    <v>       0.00042000       0.37322400       0.57375200 </v>
    <v>       0.37322400       0.62635700       0.57375200 </v>
    <v>       0.37364300       0.99958000       0.42624800 </v>
    <v>       0.99958000       0.62677600       0.42624800 </v>
    <v>       0.62677600       0.37364300       0.42624800 </v>
   </varray>
  </structure>
  <varray name="forces" >
   <v>       0.00000000       0.00000000      -0.10481235 </v>
   <v>       0.00000000       0.00000000      -0.09548088 </v>
   <v>       0.00000000       0.00000000      -0.00998264 </v>
   <v>       0.00000000       0.00000000      -0.51493130 </v>
   <v>      -0.18482325      -0.00749860       0.14929418 </v>
   <v>       0.08591763       0.16381092       0.14929418 </v>
   <v>       0.09890562      -0.15631232       0.14929418 </v>
   <v>      -0.04797013       0.00818341       0.09244154 </v>
   <v>       0.03107210       0.03745164       0.09244154 </v>
   <v>       0.01689803      -0.04563505       0.09244154 </v>
  </varray>
  <varray name="stress" >
   <v>      -0.17047770      -0.00000019       0.00000000 </v>
   <v>       0.00000022      -0.17047768      -0.00000000 </v>
   <v>      -0.00000000      -0.00000000      -0.06437132 </v>
  </varray>
  <energy>
   <i name="e_fr_energy">    -42.56882135 </i>
   <i name="e_wo_entrp">    -42.56882135 </i>
   <i name="e_0_energy">      0.00000000 </i>
  </energy>
  <time name="totalsc">  609.90  613.10</time>
 </calculation>
 <calculation>
  <scstep>
   <time name="dav">   18.00   18.08</time>
   <time name="total">   70.87   71.11</time>
   <energy>
    <i name="alphaZ">     14.00275579 </i>
    <i name="ewald">   6107.07637810 </i>
    <i name="hartreedc">  -8050.32121348 </i>
    <i name="XCdc">   -216.26656406 </i>
    <i name="pawpsdc">   1247.65254549 </i>
    <i name="pawaedc">   -943.76284758 </i>
    <i name="eentropy">      0.00000000 </i>
    <i name="bandstr">   -386.31146005 </i>
    <i name="atom">   2185.36163785 </i>
    <i name="e_fr_energy">    -42.56876795 </i>
    <i name="e_wo_entrp">    -42.56876795 </i>
    <i name="e_0_energy">    -42.56876795 </i>
   </energy>
  </scstep>
  <scstep>
   <time name="dav">   18.06   18.14</time>
   <time name="total">   69.18   69.33</time>
   <energy>
    <i name="alphaZ">     14.00275579 </i>
    <i name="ewald">   6107.07637810 </i>
    <i name="hartreedc">  -8050.48207251 </i>
    <i name="XCdc">   -216.26370095 </i>
    <i name="pawpsdc">   1247.59440361 </i>
    <i name="pawaedc">   -943.70336375 </i>
    <i name="eentropy">      0.00000000 </i>
    <i name="bandstr">   -386.15478277 </i>
    <i name="atom">   2185.36163785 </i>
    <i name="e_fr_energy">    -42.56874462 </i>
    <i name="e_wo_entrp">    -42.56874462 </i>
    <i name="e_0_energy">    -42.56874462 </i>
   </energy>
  </scstep>
  <structure>
   <crystal>
    <varray name="basis" >
     <v>       6.87819770      -0.00000007       0.00000000 </v>
     <v>       3.43909842       5.95669355      -0.00000000 </v>
     <v>      -0.00000000      -0.00000000      23.00098997 </v>
    </varray>
    <i name="volume">    942.38083124 </i>
    <varray name="rec_basis" >
     <v>       0.14538692      -0.08393917       0.00000000 </v>
     <v>       0.00000000       0.16787837       0.00000000 </v>
     <v>      -0.00000000       0.00000000       0.04347639 </v>
    </varray>
   </crystal>
   <varray name="positions" >
    <v>       0.33333300       0.33333300       0.49992500 </v>
    <v>       0.66666700       0.66666700       0.50007500 </v>
    <v>       0.00000000      -0.00000000       0.44701365 </v>
    <v>       0.00000000       0.00000000       0.55178400 </v>
    <v>       0.62635700       0.00042000       0.57375200 </v>
    <v>       0.00042000       0.37322400       0.57375200 </v>
    <v>       0.37322400       0.62635700       0.57375200 </v>
    <v>       0.37364300       0.99958000       0.42624800 </v>
    <v>       0.99958000       0.62677600       0.42624800 </v>
    <v>       0.62677600       0.37364300       0.42624800 </v>
   </varray>
  </structure>
  <varray name="forces" >
   <v>       0.00000000      -0.00000000      -0.10497151 </v>
   <v>       0.00000000      -0.00000000      -0.09582524 </v>
   <v>       0.00000000      -0.00000000      -0.00654997 </v>
   <v>       0.00000000      -0.00000000      -0.51637926 </v>
   <v>      -0.18497488      -0.00778482       0.14902758 </v>
   <v>       0.08574557       0.16408535       0.14902758 </v>
   <v>       0.09922931      -0.15630053       0.14902758 </v>
   <v>      -0.04758128       0.00769602       0.09221441 </v>
   <v>       0.03045558       0.03735858       0.09221441 </v>
   <v>       0.01712569      -0.04505460       0.09221441 </v>
  </varray>
  <varray name="stress" >
   <v>      -0.18135645      -0.00000062       0.00000000 </v>
   <v>       0.00000065      -0.18135642       0.00000000 </v>
   <v>       0.00000000      -0.00000000      -0.22955907 </v>
  </varray>
  <energy>
   <i name="e_fr_energy">    -42.56874462 </i>
   <i name="e_wo_entrp">    -42.56874462 </i>
   <i name="e_0_energy">      0.00000000 </i>
  </energy>
  <time name="totalsc">  270.59  271.46</time>
  <eigenvalues>
   <array>
    <dimension dim="1">band</dimension>
    <dimension dim="2">kpoint</dimension>
    <dimension dim="3">spin</dimension>
    <field>eigene</field>
    <field>occ</field>
    <set>
     <set comment="spin 1">
      <set comment="kpoint 1">
       <r>  -15.1009    1.0000 </r>
       <r>  -13.9185    1.0000 </r>
       <r>  -12.7917    1.0000 </r>
       <r>  -12.7917    1.0000 </r>
       <r>  -12.6683    1.0000 </r>
       <r>  -12.6682    1.0000 </r>
       <r>  -11.9025    1.0000 </r>
       <r>   -9.5210    1.0000 </r>
       <r>   -6.9134    1.0000 </r>
       <r>   -6.9134    1.0000 </r>
       <r>   -6.6840    1.0000 </r>
       <r>   -6.6370    1.0000 </r>
       <r>   -6.2961    1.0000 </r>
       <r>   -6.2961    1.0000 </r>
       <r>   -5.3813    1.0000 </r>
       <r>   -4.4942    1.0000 </r>
       <r>   -4.4942    1.0000 </r>
       <r>   -4.4830    1.0000 </r>
       <r>   -4.1635    1.0000 </r>
       <r>   -4.1635    1.0000 </r>
       <r>   -3.6544    1.0000 </r>
       <r>   -3.6544    1.0000 </r>
       <r>   -3.4994    1.0000 </r>
       <r>   -3.1390    1.0000 </r>
       <r>   -3.1390    1.0000 </r>
       <r>   -3.1126    1.0000 </r>
       <r>   -3.0621    1.0000 </r>
       <r>   -3.0621    1.0000 </r>
       <r>   -2.9763    1.0000 </r>
       <r>   -2.3120    1.0000 </r>
       <r>   -2.3120    1.0000 </r>
       <r>   -1.1980    0.0000 </r>
       <r>   -1.0601    0.0000 </r>
       <r>   -1.0601    0.0000 </r>
       <r>   -0.5401    0.0000 </r>
       <r>   -0.3423    0.0000 </r>
       <r>   -0.3423    0.0000 </r>
       <r>    0.2471    0.0000 </r>
       <r>    0.2472    0.0000 </r>
       <r>    1.5367    0.0000 </r>
       <r>    1.6378    0.0000 </r>
       <r>    1.8635    0.0000 </r>
       <r>    1.9064    0.0000 </r>
       <r>    1.9064    0.0000 </r>
       <r>    1.9804    0.0000 </r>
       <r>    2.8849    0.0000 </r>
       <r>    3.1677    0.0000 </r>
       <r>    3.1678    0.0000 </r>
      </set>
      <set comment="kpoint 2">
       <r>  -14.9978    1.0000 </r>
       <r>  -13.8277    1.0000 </r>
       <r>  -13.1097    1.0000 </r>
       <r>  -12.8998    1.0000 </r>
       <r>  -12.7897    1.0000 </r>
       <r>  -12.7315    1.0000 </r>
       <r>  -11.5944    1.0000 </r>
       <r>   -9.5236    1.0000 </r>
       <r>   -7.0025    1.0000 </r>
       <r>   -6.8021    1.0000 </r>
       <r>   -6.5740    1.0000 </r>
       <r>   -6.4627    1.0000 </r>
       <r>   -5.9081    1.0000 </r>
       <r>   -5.7460    1.0000 </r>
       <r>   -5.1661    1.0000 </r>
       <r>   -4.8652    1.0000 </r>
       <r>   -4.6585    1.0000 </r>
       <r>   -4.5164    1.0000 </r>
       <r>   -4.1142    1.0000 </r>
       <r>   -4.0233    1.0000 </r>
       <r>   -3.9524    1.0000 </r>
       <r>   -3.9146    1.0000 </r>
       <r>   -3.5949    1.0000 </r>
       <r>   -3.3597    1.0000 </r>
       <r>   -3.3181    1.0000 </r>
       <r>   -3.1500    1.0000 </r>
       <r>   -3.1254    1.0000 </r>
       <r>   -3.0036    1.0000 </r>
       <r>   -2.9425    1.0000 </r>
       <r>   -2.6241    1.0000 </r>
       <r>   -2.5044    1.0000 </r>
       <r>   -1.5190   -0.0341 </r>
       <r>   -0.9626    0.0000 </r>
       <r>   -0.9102    0.0000 </r>
       <r>   -0.6964    0.0000 </r>
       <r>   -0.4567    0.0000 </r>
       <r>   -0.0030    0.0000 </r>
       <r>    0.2661    0.0000 </r>
       <r>    0.5526    0.0000 </r>
       <r>    1.4289    0.0000 </r>
       <r>    1.6857    0.0000 </r>
       <r>    1.8854    0.0000 </r>
       <r>    1.9092    0.0000 </r>
       <r>    2.0935    0.0000 </r>
       <r>    2.1435    0.0000 </r>
       <r>    3.0110    0.0000 </r>
       <r>    3.0358    0.0000 </r>
       <r>    3.2090    0.0000 </r>
      </set>
      <set comment="kpoint 3">
       <r>  -14.7659    1.0000 </r>
       <r>  -13.6643    1.0000 </r>
       <r>  -13.5438    1.0000 </r>
       <r>  -13.0367    1.0000 </r>
       <r>  -12.9660    1.0000 </r>
       <r>  -12.8825    1.0000 </r>
       <r>  -11.2641    1.0000 </r>
       <r>   -9.4917    1.0000 </r>
       <r>   -6.8785    1.0000 </r>
       <r>   -6.6318    1.0000 </r>
       <r>   -6.1720    1.0000 </r>
       <r>   -5.9520    1.0000 </r>
       <r>   -5.3188    1.0000 </r>
       <r>   -5.2531    1.0000 </r>
       <r>   -5.2256    1.0000 </r>
       <r>   -5.0351    1.0000 </r>
       <r>   -4.8825    1.0000 </r>
       <r>   -4.7790    1.0000 </r>
       <r>   -4.4461    1.0000 </r>
       <r>   -4.3676    1.0000 </r>
       <r>   -4.3125    1.0000 </r>
       <r>   -3.7506    1.0000 </r>
       <r>   -3.7122    1.0000 </r>
       <r>   -3.6604    1.0000 </r>
       <r>   -3.3326    1.0000 </r>
       <r>   -3.2214    1.0000 </r>
       <r>   -3.1785    1.0000 </r>
       <r>   -2.9266    1.0000 </r>
       <r>   -2.8475    1.0000 </r>
       <r>   -2.8024    1.0000 </r>
       <r>   -2.7476    1.0000 </r>
       <r>   -1.5394   -0.0589 </r>
       <r>   -1.2621    0.0000 </r>
       <r>   -0.9628    0.0000 </r>
       <r>   -0.8107    0.0000 </r>
       <r>   -0.5740    0.0000 </r>
       <r>   -0.3088    0.0000 </r>
       <r>    0.1377    0.0000 </r>
       <r>    1.0158    0.0000 </r>
       <r>    1.2620    0.0000 </r>
       <r>    1.5381    0.0000 </r>
       <r>    1.8733    0.0000 </r>
       <r>    2.0774    0.0000 </r>
       <r>    2.3180    0.0000 </r>
       <r>    2.5538    0.0000 </r>
       <r>    2.8865    0.0000 </r>
       <r>    3.0499    0.0000 </r>
       <r>    3.5396    0.0000 </r>
      </set>
      <set comment="kpoint 4">
       <r>  -14.8239    1.0000 </r>
       <r>  -13.6773    1.0000 </r>
       <r>  -13.3964    1.0000 </r>
       <r>  -13.1645    1.0000 </r>
       <r>  -12.9215    1.0000 </r>
       <r>  -12.8025    1.0000 </r>
       <r>  -11.3006    1.0000 </r>
       <r>   -9.4822    1.0000 </r>
       <r>   -7.0375    1.0000 </r>
       <r>   -6.4685    1.0000 </r>
       <r>   -6.3777    1.0000 </r>
       <r>   -6.1974    1.0000 </r>
       <r>   -5.3242    1.0000 </r>
       <r>   -5.1972    1.0000 </r>
       <r>   -5.1697    1.0000 </r>
       <r>   -4.9891    1.0000 </r>
       <r>   -4.8984    1.0000 </r>
       <r>   -4.7014    1.0000 </r>
       <r>   -4.6641    1.0000 </r>
       <r>   -4.2765    1.0000 </r>
       <r>   -4.2609    1.0000 </r>
       <r>   -3.6790    1.0000 </r>
       <r>   -3.6439    1.0000 </r>
       <r>   -3.4232    1.0000 </r>
       <r>   -3.3303    1.0000 </r>
       <r>   -3.2369    1.0000 </r>
       <r>   -3.1755    1.0000 </r>
       <r>   -3.0059    1.0000 </r>
       <r>   -2.8616    1.0000 </r>
       <r>   -2.7436    1.0000 </r>
       <r>   -2.6863    1.0000 </r>
       <r>   -1.7336    0.8517 </r>
       <r>   -1.0638    0.0000 </r>
       <r>   -0.8549    0.0000 </r>
       <r>   -0.7387    0.0000 </r>
       <r>   -0.6618    0.0000 </r>
       <r>   -0.2709    0.0000 </r>
       <r>    0.4262    0.0000 </r>
       <r>    0.4866    0.0000 </r>
       <r>    1.2722    0.0000 </r>
       <r>    1.5687    0.0000 </r>
       <r>    1.5974    0.0000 </r>
       <r>    2.1776    0.0000 </r>
       <r>    2.4158    0.0000 </r>
       <r>    2.4376    0.0000 </r>
       <r>    3.0445    0.0000 </r>
       <r>    3.0779    0.0000 </r>
       <r>    3.4246    0.0000 </r>
      </set>
      <set comment="kpoint 5">
       <r>  -14.6733    1.0000 </r>
       <r>  -13.6464    1.0000 </r>
       <r>  -13.4859    1.0000 </r>
       <r>  -13.3006    1.0000 </r>
       <r>  -13.0362    1.0000 </r>
       <r>  -12.8891    1.0000 </r>
       <r>  -11.1337    1.0000 </r>
       <r>   -9.4305    1.0000 </r>
       <r>   -6.8424    1.0000 </r>
       <r>   -6.3955    1.0000 </r>
       <r>   -6.2977    1.0000 </r>
       <r>   -5.7574    1.0000 </r>
       <r>   -5.7545    1.0000 </r>
       <r>   -5.3148    1.0000 </r>
       <r>   -5.0598    1.0000 </r>
       <r>   -4.8873    1.0000 </r>
       <r>   -4.8563    1.0000 </r>
       <r>   -4.6525    1.0000 </r>
       <r>   -4.5676    1.0000 </r>
       <r>   -4.4426    1.0000 </r>
       <r>   -4.2595    1.0000 </r>
       <r>   -3.9283    1.0000 </r>
       <r>   -3.5261    1.0000 </r>
       <r>   -3.4189    1.0000 </r>
       <r>   -3.3041    1.0000 </r>
       <r>   -3.3026    1.0000 </r>
       <r>   -3.1041    1.0000 </r>
       <r>   -2.9981    1.0000 </r>
       <r>   -2.8754    1.0000 </r>
       <r>   -2.8492    1.0000 </r>
       <r>   -2.7514    1.0000 </r>
       <r>   -1.6396    0.2941 </r>
       <r>   -1.2323    0.0000 </r>
       <r>   -1.1574    0.0000 </r>
       <r>   -0.8340    0.0000 </r>
       <r>   -0.5524    0.0000 </r>
       <r>   -0.3753    0.0000 </r>
       <r>    0.0190    0.0000 </r>
       <r>    0.5215    0.0000 </r>
       <r>    1.1430    0.0000 </r>
       <r>    1.3403    0.0000 </r>
       <r>    1.3968    0.0000 </r>
       <r>    2.5531    0.0000 </r>
       <r>    2.7317    0.0000 </r>
       <r>    2.7633    0.0000 </r>
       <r>    2.8722    0.0000 </r>
       <r>    2.8972    0.0000 </r>
       <r>    3.3553    0.0000 </r>
      </set>
     </set>
     <set comment="spin 2">
      <set comment="kpoint 1">
       <r>  -15.1258    1.0000 </r>
       <r>  -13.9730    1.0000 </r>
       <r>  -12.8724    1.0000 </r>
       <r>  -12.8723    1.0000 </r>
       <r>  -12.7270    1.0000 </r>
       <r>  -12.7270    1.0000 </r>
       <r>  -11.9016    1.0000 </r>
       <r>   -9.5263    1.0000 </r>
       <r>   -6.8617    1.0000 </r>
       <r>   -6.8617    1.0000 </r>
       <r>   -6.5237    1.0000 </r>
       <r>   -6.3966    1.0000 </r>
       <r>   -6.2131    1.0000 </r>
       <r>   -6.2131    1.0000 </r>
       <r>   -5.3442    1.0000 </r>
       <r>   -4.2102    1.0000 </r>
       <r>   -3.9635    1.0000 </r>
       <r>   -3.9635    1.0000 </r>
       <r>   -3.6576    1.0000 </r>
       <r>   -3.6576    1.0000 </r>
       <r>   -3.5426    1.0000 </r>
       <r>   -3.3415    1.0000 </r>
       <r>   -3.3415    1.0000 </r>
       <r>   -2.3508    1.0000 </r>
       <r>   -2.3507    1.0000 </r>
       <r>   -1.4477    0.0000 </r>
       <r>   -0.8592    0.0000 </r>
       <r>   -0.8592    0.0000 </r>
       <r>   -0.8491    0.0000 </r>
       <r>   -0.5803    0.0000 </r>
       <r>   -0.5803    0.0000 </r>
       <r>   -0.3611    0.0000 </r>
       <r>   -0.1308    0.0000 </r>
       <r>    0.0288    0.0000 </r>
       <r>    0.0288    0.0000 </r>
       <r>    0.5940    0.0000 </r>
       <r>    0.5940    0.0000 </r>
       <r>    0.7318    0.0000 </r>
       <r>    0.7318    0.0000 </r>
       <r>    1.5339    0.0000 </r>
       <r>    1.7369    0.0000 </r>
       <r>    1.9735    0.0000 </r>
       <r>    2.0045    0.0000 </r>
       <r>    2.0045    0.0000 </r>
       <r>    2.4232    0.0000 </r>
       <r>    2.9021    0.0000 </r>
       <r>    3.4374    0.0000 </r>
       <r>    3.4374    0.0000 </r>
      </set>
      <set comment="kpoint 2">
       <r>  -15.0249    1.0000 </r>
       <r>  -13.8807    1.0000 </r>
       <r>  -13.1668    1.0000 </r>
       <r>  -12.9762    1.0000 </r>
       <r>  -12.8470    1.0000 </r>
       <r>  -12.7923    1.0000 </r>
       <r>  -11.6161    1.0000 </r>
       <r>   -9.5266    1.0000 </r>
       <r>   -6.9193    1.0000 </r>
       <r>   -6.7008    1.0000 </r>
       <r>   -6.4483    1.0000 </r>
       <r>   -6.3829    1.0000 </r>
       <r>   -5.8061    1.0000 </r>
       <r>   -5.5712    1.0000 </r>
       <r>   -5.0069    1.0000 </r>
       <r>   -4.6064    1.0000 </r>
       <r>   -4.1436    1.0000 </r>
       <r>   -4.0826    1.0000 </r>
       <r>   -3.9950    1.0000 </r>
       <r>   -3.5914    1.0000 </r>
       <r>   -3.5382    1.0000 </r>
       <r>   -3.4685    1.0000 </r>
       <r>   -3.3494    1.0000 </r>
       <r>   -3.2745    1.0000 </r>
       <r>   -2.7000    1.0000 </r>
       <r>   -1.3793    0.1205 </r>
       <r>   -0.9768    0.0000 </r>
       <r>   -0.8137    0.0000 </r>
       <r>   -0.6657    0.0000 </r>
       <r>   -0.5809    0.0000 </r>
       <r>   -0.4469    0.0000 </r>
       <r>   -0.3485    0.0000 </r>
       <r>    0.0048    0.0000 </r>
       <r>    0.1675    0.0000 </r>
       <r>    0.2207    0.0000 </r>
       <r>    0.2738    0.0000 </r>
       <r>    0.4484    0.0000 </r>
       <r>    0.6443    0.0000 </r>
       <r>    0.9796    0.0000 </r>
       <r>    1.5163    0.0000 </r>
       <r>    1.8091    0.0000 </r>
       <r>    2.0211    0.0000 </r>
       <r>    2.0357    0.0000 </r>
       <r>    2.1557    0.0000 </r>
       <r>    2.5530    0.0000 </r>
       <r>    3.0634    0.0000 </r>
       <r>    3.2663    0.0000 </r>
       <r>    3.4704    0.0000 </r>
      </set>
      <set comment="kpoint 3">
       <r>  -14.7990    1.0000 </r>
       <r>  -13.7016    1.0000 </r>
       <r>  -13.5943    1.0000 </r>
       <r>  -13.1081    1.0000 </r>
       <r>  -13.0366    1.0000 </r>
       <r>  -12.9323    1.0000 </r>
       <r>  -11.2991    1.0000 </r>
       <r>   -9.4906    1.0000 </r>
       <r>   -6.7932    1.0000 </r>
       <r>   -6.5319    1.0000 </r>
       <r>   -6.0912    1.0000 </r>
       <r>   -5.8697    1.0000 </r>
       <r>   -5.1877    1.0000 </r>
       <r>   -5.0937    1.0000 </r>
       <r>   -5.0324    1.0000 </r>
       <r>   -4.7906    1.0000 </r>
[...]
        <r>  0.0021  0.0049  0.0031  0.0066  0.0014  0.0001  0.0020  0.0002  0.0022 </r>
        <r>  0.0000  0.0007  0.0000  0.0020  0.0012  0.0000  0.0000  0.0000  0.0036 </r>
        <r>  0.0021  0.0109  0.0030  0.0006  0.0019  0.0003  0.0020  0.0000  0.0017 </r>
       </set>
       <set comment="band 30">
        <r>  0.0016  0.0010  0.0004  0.0001  0.1240  0.0247  0.0448  0.0039  0.1925 </r>
        <r>  0.0016  0.0001  0.0004  0.0011  0.2368  0.0019  0.0398  0.0270  0.0783 </r>
        <r>  0.0000  0.0033  0.0000  0.0093  0.0000  0.0000  0.0000  0.0000  0.0000 </r>
        <r>  0.0000  0.0018  0.0000  0.0051  0.0001  0.0001  0.0000  0.0002  0.0004 </r>
        <r>  0.0011  0.0047  0.0010  0.0010  0.0001  0.0002  0.0002  0.0001  0.0003 </r>
        <r>  0.0000  0.0002  0.0000  0.0007  0.0006  0.0003  0.0000  0.0010  0.0017 </r>
        <r>  0.0011  0.0001  0.0011  0.0057  0.0002  0.0001  0.0002  0.0002  0.0001 </r>
        <r>  0.0006  0.0007  0.0000  0.0056  0.0010  0.0007  0.0004  0.0000  0.0003 </r>
        <r>  0.0000  0.0012  0.0000  0.0041  0.0004  0.0000  0.0000  0.0001  0.0011 </r>
        <r>  0.0006  0.0048  0.0000  0.0016  0.0002  0.0001  0.0004  0.0006  0.0010 </r>
       </set>
       <set comment="band 31">
        <r>  0.0025  0.0003  0.0006  0.0006  0.1305  0.0138  0.1488  0.0199  0.0817 </r>
        <r>  0.0019  0.0008  0.0005  0.0005  0.0051  0.0247  0.1155  0.0001  0.2128 </r>
        <r>  0.0001  0.0082  0.0005  0.0065  0.0000  0.0000  0.0000  0.0000  0.0000 </r>
        <r>  0.0002  0.0073  0.0002  0.0082  0.0001  0.0002  0.0000  0.0002  0.0002 </r>
        <r>  0.0004  0.0004  0.0012  0.0016  0.0012  0.0008  0.0008  0.0000  0.0001 </r>
        <r>  0.0000  0.0009  0.0003  0.0016  0.0002  0.0002  0.0002  0.0003  0.0003 </r>
        <r>  0.0013  0.0017  0.0027  0.0011  0.0000  0.0001  0.0012  0.0002  0.0011 </r>
        <r>  0.0017  0.0032  0.0006  0.0045  0.0001  0.0004  0.0003  0.0001  0.0000 </r>
        <r>  0.0001  0.0005  0.0001  0.0008  0.0001  0.0008  0.0001  0.0017  0.0003 </r>
        <r>  0.0020  0.0032  0.0013  0.0042  0.0000  0.0000  0.0005  0.0002  0.0002 </r>
       </set>
       <set comment="band 32">
        <r>  0.0019  0.0004  0.0002  0.0010  0.0849  0.0011  0.2079  0.0013  0.0512 </r>
        <r>  0.0025  0.0001  0.0003  0.0009  0.0261  0.0079  0.2454  0.0027  0.1033 </r>
        <r>  0.0006  0.0075  0.0052  0.0087  0.0000  0.0000  0.0000  0.0000  0.0000 </r>
        <r>  0.0023  0.0061  0.0021  0.0069  0.0002  0.0001  0.0005  0.0002  0.0001 </r>
        <r>  0.0011  0.0007  0.0019  0.0019  0.0002  0.0002  0.0004  0.0005  0.0000 </r>
        <r>  0.0003  0.0014  0.0035  0.0008  0.0001  0.0000  0.0018  0.0001  0.0001 </r>
        <r>  0.0002  0.0001  0.0004  0.0016  0.0001  0.0005  0.0000  0.0007  0.0004 </r>
        <r>  0.0005  0.0006  0.0007  0.0016  0.0003  0.0008  0.0001  0.0001  0.0001 </r>
        <r>  0.0012  0.0082  0.0012  0.0022  0.0004  0.0000  0.0011  0.0004  0.0002 </r>
        <r>  0.0002  0.0002  0.0000  0.0021  0.0001  0.0000  0.0000  0.0013  0.0001 </r>
       </set>
       <set comment="band 33">
        <r>  0.0012  0.0001  0.0002  0.0001  0.0582  0.0377  0.0294  0.0351  0.0978 </r>
        <r>  0.0012  0.0001  0.0002  0.0001  0.1104  0.0136  0.0303  0.0588  0.0464 </r>
        <r>  0.0019  0.0045  0.0259  0.0015  0.0000  0.0000  0.0000  0.0000  0.0000 </r>
        <r>  0.0078  0.0023  0.0361  0.0008  0.0000  0.0002  0.0039  0.0001  0.0000 </r>
        <r>  0.0025  0.0005  0.0025  0.0032  0.0000  0.0003  0.0002  0.0035  0.0002 </r>
        <r>  0.0080  0.0015  0.0006  0.0005  0.0001  0.0015  0.0001  0.0005  0.0000 </r>
        <r>  0.0025  0.0015  0.0025  0.0020  0.0002  0.0022  0.0002  0.0015  0.0000 </r>
        <r>  0.0021  0.0011  0.0023  0.0003  0.0001  0.0002  0.0004  0.0020  0.0005 </r>
        <r>  0.0078  0.0065  0.0039  0.0022  0.0000  0.0005  0.0000  0.0002  0.0000 </r>
        <r>  0.0021  0.0008  0.0023  0.0007  0.0005  0.0011  0.0004  0.0010  0.0001 </r>
       </set>
       <set comment="band 34">
        <r>  0.0005  0.0002  0.0013  0.0001  0.0065  0.1164  0.1209  0.0400  0.0133 </r>
        <r>  0.0005  0.0001  0.0013  0.0001  0.0189  0.1088  0.1211  0.0474  0.0015 </r>
        <r>  0.0000  0.0039  0.0000  0.0115  0.0000  0.0000  0.0000  0.0000  0.0000 </r>
        <r>  0.0000  0.0016  0.0000  0.0050  0.0007  0.0002  0.0000  0.0006  0.0022 </r>
        <r>  0.0022  0.0019  0.0036  0.0094  0.0015  0.0003  0.0001  0.0003  0.0005 </r>
        <r>  0.0000  0.0009  0.0000  0.0026  0.0005  0.0001  0.0000  0.0002  0.0016 </r>
        <r>  0.0022  0.0046  0.0037  0.0066  0.0003  0.0001  0.0002  0.0006  0.0017 </r>
        <r>  0.0044  0.0001  0.0054  0.0166  0.0015  0.0003  0.0002  0.0004  0.0003 </r>
        <r>  0.0000  0.0008  0.0000  0.0023  0.0006  0.0002  0.0000  0.0007  0.0019 </r>
        <r>  0.0043  0.0117  0.0054  0.0051  0.0002  0.0001  0.0002  0.0007  0.0016 </r>
       </set>
       <set comment="band 35">
        <r>  0.0038  0.0004  0.0018  0.0004  0.0354  0.0317  0.0147  0.0235  0.0121 </r>
        <r>  0.0038  0.0001  0.0018  0.0007  0.0072  0.0023  0.0153  0.0546  0.0395 </r>
        <r>  0.0000  0.0525  0.0046  0.0176  0.0000  0.0000  0.0000  0.0000  0.0000 </r>
        <r>  0.0033  0.0119  0.0002  0.0040  0.0020  0.0036  0.0002  0.0012  0.0007 </r>
        <r>  0.0006  0.0004  0.0015  0.0024  0.0017  0.0005  0.0000  0.0003  0.0008 </r>
        <r>  0.0031  0.0252  0.0003  0.0084  0.0006  0.0024  0.0001  0.0008  0.0002 </r>
        <r>  0.0006  0.0022  0.0015  0.0007  0.0009  0.0001  0.0000  0.0007  0.0015 </r>
        <r>  0.0019  0.0025  0.0028  0.0225  0.0032  0.0005  0.0000  0.0008  0.0009 </r>
        <r>  0.0109  0.0506  0.0044  0.0172  0.0014  0.0024  0.0000  0.0008  0.0005 </r>
        <r>  0.0019  0.0127  0.0028  0.0123  0.0022  0.0006  0.0000  0.0008  0.0019 </r>
       </set>
       <set comment="band 36">
        <r>  0.0001  0.0001  0.0000  0.0005  0.0797  0.0513  0.0189  0.1616  0.0117 </r>
        <r>  0.0001  0.0003  0.0000  0.0003  0.0501  0.1161  0.0200  0.0876  0.0400 </r>
        <r>  0.0021  0.0011  0.0035  0.0005  0.0000  0.0000  0.0000  0.0000  0.0000 </r>
        <r>  0.0036  0.0002  0.0017  0.0001  0.0001  0.0001  0.0001  0.0000  0.0001 </r>
        <r>  0.0028  0.0069  0.0040  0.0020  0.0000  0.0021  0.0000  0.0001  0.0001 </r>
        <r>  0.0056  0.0096  0.0101  0.0033  0.0006  0.0002  0.0003  0.0000  0.0002 </r>
        <r>  0.0026  0.0055  0.0038  0.0030  0.0001  0.0010  0.0000  0.0012  0.0000 </r>
        <r>  0.0018  0.0085  0.0027  0.0017  0.0001  0.0015  0.0000  0.0001  0.0004 </r>
        <r>  0.0074  0.0210  0.0109  0.0065  0.0007  0.0004  0.0003  0.0001  0.0002 </r>
        <r>  0.0016  0.0003  0.0026  0.0111  0.0005  0.0004  0.0000  0.0013  0.0000 </r>
       </set>
       <set comment="band 37">
        <r>  0.0018  0.0009  0.0002  0.0006  0.0088  0.0252  0.0130  0.2045  0.0314 </r>
        <r>  0.0017  0.0009  0.0002  0.0006  0.0197  0.0964  0.0113  0.1381  0.0240 </r>
        <r>  0.0000  0.0026  0.0000  0.0081  0.0000  0.0000  0.0000  0.0000  0.0000 </r>
        <r>  0.0000  0.0018  0.0000  0.0058  0.0001  0.0002  0.0000  0.0006  0.0004 </r>
        <r>  0.0062  0.0117  0.0024  0.0012  0.0002  0.0001  0.0002  0.0001  0.0003 </r>
        <r>  0.0000  0.0059  0.0000  0.0166  0.0003  0.0013  0.0000  0.0039  0.0009 </r>
        <r>  0.0063  0.0017  0.0026  0.0119  0.0001  0.0001  0.0002  0.0002  0.0004 </r>
        <r>  0.0052  0.0237  0.0023  0.0078  0.0004  0.0007  0.0002  0.0004  0.0004 </r>
        <r>  0.0000  0.0039  0.0000  0.0115  0.0002  0.0009  0.0000  0.0026  0.0005 </r>
        <r>  0.0053  0.0099  0.0025  0.0205  0.0001  0.0003  0.0002  0.0007  0.0008 </r>
       </set>
       <set comment="band 38">
        <r>  0.0008  0.0005  0.0001  0.0004  0.0322  0.1481  0.0078  0.0513  0.0278 </r>
        <r>  0.0008  0.0001  0.0001  0.0007  0.0457  0.1425  0.0082  0.0599  0.0135 </r>
        <r>  0.0038  0.0015  0.0192  0.0004  0.0000  0.0000  0.0000  0.0000  0.0000 </r>
        <r>  0.0218  0.0020  0.0203  0.0006  0.0002  0.0003  0.0011  0.0001  0.0001 </r>
        <r>  0.0010  0.0015  0.0042  0.0284  0.0003  0.0001  0.0001  0.0007  0.0012 </r>
        <r>  0.0000  0.0137  0.0006  0.0049  0.0003  0.0000  0.0000  0.0000  0.0001 </r>
        <r>  0.0011  0.0177  0.0041  0.0120  0.0014  0.0009  0.0001  0.0000  0.0000 </r>
        <r>  0.0014  0.0002  0.0115  0.0101  0.0001  0.0006  0.0001  0.0007  0.0006 </r>
        <r>  0.0007  0.0100  0.0030  0.0035  0.0002  0.0004  0.0002  0.0001  0.0001 </r>
        <r>  0.0013  0.0086  0.0113  0.0013  0.0004  0.0013  0.0001  0.0001  0.0002 </r>
       </set>
       <set comment="band 39">
        <r>  0.0039  0.0011  0.0005  0.0005  0.0222  0.1128  0.0037  0.0134  0.0210 </r>
        <r>  0.0039  0.0010  0.0005  0.0006  0.0397  0.0379  0.0037  0.0892  0.0037 </r>
        <r>  0.0000  0.0126  0.0000  0.0375  0.0000  0.0000  0.0000  0.0000  0.0000 </r>
        <r>  0.0000  0.0009  0.0000  0.0029  0.0000  0.0009  0.0000  0.0027  0.0001 </r>
        <r>  0.0012  0.0217  0.0003  0.0033  0.0008  0.0023  0.0001  0.0006  0.0001 </r>
        <r>  0.0000  0.0018  0.0000  0.0054  0.0001  0.0000  0.0000  0.0000  0.0002 </r>
        <r>  0.0012  0.0133  0.0003  0.0116  0.0005  0.0014  0.0001  0.0015  0.0004 </r>
        <r>  0.0038  0.0287  0.0005  0.0432  0.0008  0.0015  0.0002  0.0013  0.0014 </r>
        <r>  0.0000  0.0093  0.0000  0.0283  0.0006  0.0001  0.0000  0.0003  0.0016 </r>
        <r>  0.0039  0.0689  0.0005  0.0032  0.0013  0.0023  0.0002  0.0005  0.0009 </r>
       </set>
       <set comment="band 40">
        <r>  0.0140  0.0002  0.0029  0.0011  0.0019  0.0019  0.0241  0.0029  0.0318 </r>
        <r>  0.0140  0.0013  0.0029  0.0000  0.0215  0.0015  0.0240  0.0036  0.0127 </r>
        <r>  0.0024  0.0213  0.0104  0.0071  0.0000  0.0000  0.0000  0.0000  0.0000 </r>
        <r>  0.0024  0.0796  0.0190  0.0265  0.0073  0.0003  0.0018  0.0001  0.0024 </r>
        <r>  0.0014  0.0022  0.0007  0.0027  0.0072  0.0011  0.0003  0.0003  0.0031 </r>
        <r>  0.0269  0.0282  0.0077  0.0095  0.0029  0.0027  0.0003  0.0009  0.0010 </r>
        <r>  0.0014  0.0009  0.0007  0.0040  0.0067  0.0009  0.0003  0.0005  0.0037 </r>
        <r>  0.0001  0.0024  0.0017  0.0003  0.0012  0.0006  0.0004  0.0000  0.0006 </r>
        <r>  0.0041  0.0077  0.0009  0.0026  0.0009  0.0019  0.0003  0.0006  0.0003 </r>
        <r>  0.0002  0.0004  0.0017  0.0023  0.0014  0.0001  0.0004  0.0005  0.0005 </r>
       </set>
       <set comment="band 41">
        <r>  0.0018  0.0044  0.0003  0.0013  0.0439  0.0145  0.0061  0.0163  0.0208 </r>
        <r>  0.0019  0.0030  0.0003  0.0028  0.0302  0.0091  0.0062  0.0214  0.0346 </r>
        <r>  0.0141  0.0021  0.0337  0.0007  0.0000  0.0000  0.0000  0.0000  0.0000 </r>
        <r>  0.0071  0.0124  0.0889  0.0041  0.0017  0.0000  0.0065  0.0000  0.0005 </r>
        <r>  0.0027  0.0010  0.0157  0.0006  0.0014  0.0002  0.0000  0.0034  0.0001 </r>
        <r>  0.0007  0.0078  0.0225  0.0026  0.0035  0.0010  0.0011  0.0003  0.0011 </r>
        <r>  0.0027  0.0000  0.0157  0.0016  0.0002  0.0034  0.0001  0.0003  0.0014 </r>
        <r>  0.0015  0.0007  0.0069  0.0006  0.0005  0.0007  0.0001  0.0029  0.0002 </r>
        <r>  0.0026  0.0004  0.0189  0.0001  0.0010  0.0006  0.0005  0.0002  0.0003 </r>
        <r>  0.0015  0.0007  0.0069  0.0006  0.0003  0.0036  0.0001  0.0000  0.0004 </r>
       </set>
       <set comment="band 42">
        <r>  0.0093  0.0007  0.0017  0.0012  0.0157  0.0104  0.0085  0.0299  0.0119 </r>
        <r>  0.0095  0.0018  0.0018  0.0001  0.0048  0.0297  0.0086  0.0108  0.0225 </r>
        <r>  0.0000  0.0050  0.0000  0.0150  0.0000  0.0000  0.0000  0.0000  0.0000 </r>
        <r>  0.0000  0.0242  0.0000  0.0726  0.0025  0.0002  0.0000  0.0006  0.0076 </r>
        <r>  0.0097  0.0153  0.0006  0.0378  0.0025  0.0001  0.0011  0.0010  0.0051 </r>
        <r>  0.0000  0.0056  0.0000  0.0167  0.0028  0.0000  0.0000  0.0000  0.0084 </r>
        <r>  0.0096  0.0529  0.0006  0.0003  0.0025  0.0010  0.0011  0.0001  0.0051 </r>
        <r>  0.0006  0.0031  0.0007  0.0068  0.0006  0.0008  0.0010  0.0006  0.0011 </r>
        <r>  0.0000  0.0017  0.0000  0.0052  0.0005  0.0003  0.0000  0.0009  0.0016 </r>
        <r>  0.0006  0.0078  0.0007  0.0021  0.0003  0.0006  0.0010  0.0008  0.0014 </r>
       </set>
       <set comment="band 43">
        <r>  0.0052  0.0022  0.0008  0.0022  0.0009  0.0030  0.0028  0.0014  0.0003 </r>
        <r>  0.0053  0.0003  0.0008  0.0040  0.0002  0.0019  0.0029  0.0025  0.0009 </r>
        <r>  0.0007  0.0027  0.0027  0.0009  0.0000  0.0000  0.0000  0.0000  0.0000 </r>
        <r>  0.0003  0.0003  0.0030  0.0001  0.0003  0.0003  0.0030  0.0001  0.0001 </r>
        <r>  0.0004  0.0005  0.0024  0.0020  0.0006  0.0021  0.0009  0.0002  0.0000 </r>
        <r>  0.0028  0.0031  0.0006  0.0010  0.0003  0.0019  0.0019  0.0006  0.0001 </r>
        <r>  0.0004  0.0013  0.0024  0.0013  0.0001  0.0009  0.0009  0.0014  0.0004 </r>
        <r>  0.0004  0.0006  0.0013  0.0035  0.0002  0.0014  0.0003  0.0004  0.0000 </r>
        <r>  0.0025  0.0019  0.0074  0.0006  0.0001  0.0001  0.0050  0.0000  0.0000 </r>
        <r>  0.0004  0.0019  0.0013  0.0021  0.0001  0.0005  0.0004  0.0013  0.0001 </r>
       </set>
       <set comment="band 44">
        <r>  0.0020  0.0037  0.0025  0.0017  0.0036  0.0006  0.0003  0.0008  0.0049 </r>
        <r>  0.0037  0.0027  0.0022  0.0027  0.0037  0.0011  0.0005  0.0007  0.0042 </r>
        <r>  0.0000  0.0009  0.0000  0.0031  0.0000  0.0000  0.0000  0.0000  0.0000 </r>
        <r>  0.0000  0.0015  0.0000  0.0059  0.0001  0.0001  0.0000  0.0003  0.0007 </r>
        <r>  0.0001  0.0006  0.0057  0.0041  0.0003  0.0008  0.0016  0.0016  0.0011 </r>
        <r>  0.0000  0.0006  0.0001  0.0008  0.0005  0.0011  0.0000  0.0032  0.0016 </r>
        <r>  0.0001  0.0039  0.0057  0.0007  0.0005  0.0002  0.0015  0.0030  0.0011 </r>
        <r>  0.0019  0.0009  0.0096  0.0029  0.0000  0.0006  0.0033  0.0011  0.0002 </r>
        <r>  0.0000  0.0007  0.0000  0.0010  0.0001  0.0012  0.0000  0.0031  0.0002 </r>
        <r>  0.0016  0.0037  0.0091  0.0003  0.0001  0.0001  0.0029  0.0024  0.0003 </r>
       </set>
       <set comment="band 45">
        <r>  0.0284  0.0017  0.0041  0.0034  0.0043  0.0032  0.0054  0.0012  0.0069 </r>
        <r>  0.0265  0.0035  0.0045  0.0016  0.0048  0.0032  0.0050  0.0008  0.0070 </r>
        <r>  0.0001  0.0035  0.0004  0.0010  0.0000  0.0000  0.0000  0.0000  0.0000 </r>
        <r>  0.0007  0.0138  0.0027  0.0041  0.0021  0.0006  0.0009  0.0002  0.0006 </r>
        <r>  0.0001  0.0042  0.0002  0.0020  0.0020  0.0098  0.0001  0.0007  0.0005 </r>
        <r>  0.0010  0.0048  0.0156  0.0018  0.0001  0.0007  0.0056  0.0003  0.0000 </r>
        <r>  0.0001  0.0010  0.0001  0.0053  0.0018  0.0047  0.0002  0.0050  0.0007 </r>
        <r>  0.0006  0.0033  0.0007  0.0013  0.0019  0.0109  0.0003  0.0005  0.0000 </r>
        <r>  0.0013  0.0045  0.0075  0.0018  0.0007  0.0025  0.0012  0.0009  0.0003 </r>
        <r>  0.0009  0.0001  0.0011  0.0044  0.0005  0.0052  0.0007  0.0054  0.0013 </r>
       </set>
       <set comment="band 46">
        <r>  0.0023  0.0000  0.0002  0.0009  0.0020  0.0007  0.0103  0.0003  0.0025 </r>
        <r>  0.0023  0.0006  0.0002  0.0003  0.0016  0.0007  0.0105  0.0003  0.0028 </r>
        <r>  0.0000  0.0001  0.0000  0.0003  0.0000  0.0000  0.0000  0.0000  0.0000 </r>
        <r>  0.0000  0.0006  0.0000  0.0018  0.0002  0.0001  0.0000  0.0003  0.0006 </r>
        <r>  0.0022  0.0014  0.0067  0.0013  0.0000  0.0001  0.0032  0.0002  0.0001 </r>
        <r>  0.0000  0.0007  0.0000  0.0022  0.0001  0.0002  0.0000  0.0006  0.0002 </r>
        <r>  0.0022  0.0022  0.0067  0.0005  0.0001  0.0001  0.0032  0.0002  0.0001 </r>
        <r>  0.0015  0.0006  0.0017  0.0008  0.0000  0.0002  0.0010  0.0003  0.0002 </r>
        <r>  0.0000  0.0006  0.0000  0.0017  0.0001  0.0001  0.0000  0.0001  0.0001 </r>
        <r>  0.0015  0.0004  0.0017  0.0009  0.0001  0.0001  0.0009  0.0004  0.0001 </r>
       </set>
       <set comment="band 47">
        <r>  0.0183  0.0015  0.0026  0.0017  0.0031  0.0001  0.0014  0.0008  0.0073 </r>
        <r>  0.0183  0.0016  0.0027  0.0016  0.0021  0.0007  0.0013  0.0001  0.0085 </r>
        <r>  0.0009  0.0031  0.0052  0.0010  0.0000  0.0000  0.0000  0.0000  0.0000 </r>
        <r>  0.0007  0.0024  0.0088  0.0008  0.0010  0.0014  0.0009  0.0005  0.0004 </r>
        <r>  0.0004  0.0010  0.0027  0.0001  0.0010  0.0038  0.0001  0.0000  0.0002 </r>
        <r>  0.0003  0.0012  0.0087  0.0004  0.0016  0.0028  0.0014  0.0010  0.0005 </r>
        <r>  0.0004  0.0002  0.0027  0.0009  0.0000  0.0010  0.0001  0.0027  0.0012 </r>
        <r>  0.0006  0.0013  0.0058  0.0003  0.0030  0.0038  0.0000  0.0001  0.0004 </r>
        <r>  0.0001  0.0029  0.0063  0.0010  0.0031  0.0038  0.0014  0.0013  0.0010 </r>
        <r>  0.0006  0.0001  0.0057  0.0015  0.0004  0.0008  0.0000  0.0030  0.0030 </r>
       </set>
       <set comment="band 48">
        <r>  0.0069  0.0004  0.0110  0.0005  0.0017  0.0006  0.0031  0.0003  0.0056 </r>
        <r>  0.0069  0.0007  0.0110  0.0002  0.0050  0.0007  0.0031  0.0002  0.0023 </r>
        <r>  0.0015  0.0066  0.0102  0.0022  0.0000  0.0000  0.0000  0.0000  0.0000 </r>
        <r>  0.0015  0.0010  0.0156  0.0003  0.0018  0.0048  0.0003  0.0016  0.0006 </r>
        <r>  0.0002  0.0003  0.0013  0.0007  0.0031  0.0032  0.0021  0.0007  0.0006 </r>
        <r>  0.0006  0.0001  0.0030  0.0000  0.0023  0.0021  0.0014  0.0007  0.0008 </r>
        <r>  0.0002  0.0007  0.0013  0.0003  0.0012  0.0004  0.0021  0.0035  0.0025 </r>
        <r>  0.0003  0.0007  0.0014  0.0014  0.0062  0.0025  0.0007  0.0014  0.0016 </r>
        <r>  0.0003  0.0021  0.0034  0.0007  0.0065  0.0047  0.0013  0.0016  0.0022 </r>
        <r>  0.0003  0.0007  0.0014  0.0013  0.0010  0.0008  0.0007  0.0031  0.0068 </r>
       </set>
      </set>
     </set>
    </set>
   </array>
  </projected>
 </calculation>
 <structure name="finalpos" >
  <crystal>
   <varray name="basis" >
    <v>       6.87819770      -0.00000007       0.00000000 </v>
    <v>       3.43909842       5.95669355      -0.00000000 </v>
    <v>      -0.00000000      -0.00000000      23.00098997 </v>
   </varray>
   <i name="volume">    942.38083124 </i>
   <varray name="rec_basis" >
    <v>       0.14538692      -0.08393917       0.00000000 </v>
    <v>       0.00000000       0.16787837       0.00000000 </v>
    <v>      -0.00000000       0.00000000       0.04347639 </v>
   </varray>
  </crystal>
  <varray name="positions" >
   <v>       0.33333300       0.33333300       0.49992500 </v>
   <v>       0.66666700       0.66666700       0.50007500 </v>
   <v>       0.00000000      -0.00000000       0.44701365 </v>
   <v>       0.00000000       0.00000000       0.55178400 </v>
   <v>       0.62635700       0.00042000       0.57375200 </v>
   <v>       0.00042000       0.37322400       0.57375200 </v>
   <v>       0.37322400       0.62635700       0.57375200 </v>
   <v>       0.37364300       0.99958000       0.42624800 </v>
   <v>       0.99958000       0.62677600       0.42624800 </v>
   <v>       0.62677600       0.37364300       0.42624800 </v>
  </varray>
  <varray name="selective"  type="logical" >
   <v type="logical" >  F  F  F </v>
   <v type="logical" >  F  F  F </v>
   <v type="logical" >  T  T  T </v>
   <v type="logical" >  F  F  F </v>
   <v type="logical" >  F  F  F </v>
   <v type="logical" >  F  F  F </v>
   <v type="logical" >  F  F  F </v>
   <v type="logical" >  F  F  F </v>
   <v type="logical" >  F  F  F </v>
   <v type="logical" >  F  F  F </v>
  </varray>
  <nose>
   <v>      -3.00000000       0.00000000       0.00010000       0.00010000 </v>
  </nose>
 </structure>
</modeling>
